<?xml version="1.0" encoding="UTF-8"?>

<!-- generated on 12/2/2016 9:01:58 PM by SUMO gui Version 0.28.0
<?xml version="1.0" encoding="UTF-8"?>

<configuration xmlns:xsi="http://www.w3.org/2001/XMLSchema-instance" xsi:noNamespaceSchemaLocation="http://sumo.dlr.de/xsd/sumo-gui.exeConfiguration.xsd">

    <input>
        <net-file value="data/cross.net.xml"/>
        <route-files value="data/cross.rou.xml"/>
        <additional-files value="data/cross.det.xml"/>
    </input>

    <output>
        <tripinfo-output value="tripinfo.xml"/>
    </output>

    <time>
        <begin value="0"/>
    </time>

    <report>
        <verbose value="true"/>
        <no-step-log value="true"/>
    </report>

    <traci_server>
        <remote-port value="8873"/>
    </traci_server>

</configuration>
-->

<tripinfos xmlns:xsi="http://www.w3.org/2001/XMLSchema-instance" xsi:noNamespaceSchemaLocation="http://sumo.dlr.de/xsd/tripinfo_file.xsd">
    <tripinfo id="up_3" depart="4.00" departLane="53o_0" departPos="5.10" departSpeed="0.00" departDelay="0.00" arrival="95.00" arrivalLane="54i_0" arrivalPos="10.00" arrivalSpeed="11.57" duration="91.00" routeLength="1015.10" waitSteps="0" timeLoss="14.74" rerouteNo="0" devices="tripinfo_up_3" vType="typeNS" vaporized=""/>
    <tripinfo id="right_2" depart="3.00" departLane="51o_0" departPos="5.10" departSpeed="0.00" departDelay="0.00" arrival="100.00" arrivalLane="52i_0" arrivalPos="10.00" arrivalSpeed="11.61" duration="97.00" routeLength="1015.10" waitSteps="0" timeLoss="21.07" rerouteNo="0" devices="tripinfo_right_2" vType="typeWE" vaporized=""/>
    <tripinfo id="left_0" depart="0.00" departLane="52o_0" departPos="5.10" departSpeed="0.00" departDelay="0.00" arrival="105.00" arrivalLane="51i_0" arrivalPos="10.00" arrivalSpeed="11.29" duration="105.00" routeLength="1015.10" waitSteps="2" timeLoss="28.97" rerouteNo="0" devices="tripinfo_left_0" vType="typeWE" vaporized=""/>
    <tripinfo id="left_1" depart="5.00" departLane="52o_0" departPos="5.10" departSpeed="0.00" departDelay="3.00" arrival="108.00" arrivalLane="51i_0" arrivalPos="10.00" arrivalSpeed="11.60" duration="103.00" routeLength="1015.10" waitSteps="0" timeLoss="26.63" rerouteNo="0" devices="tripinfo_left_1" vType="typeWE" vaporized=""/>
    <tripinfo id="left_4" depart="10.00" departLane="52o_0" departPos="5.10" departSpeed="0.00" departDelay="0.00" arrival="110.00" arrivalLane="51i_0" arrivalPos="10.00" arrivalSpeed="10.04" duration="100.00" routeLength="1015.10" waitSteps="0" timeLoss="23.93" rerouteNo="0" devices="tripinfo_left_4" vType="typeWE" vaporized=""/>
    <tripinfo id="left_6" depart="22.00" departLane="52o_0" departPos="5.10" departSpeed="0.00" departDelay="0.00" arrival="114.00" arrivalLane="51i_0" arrivalPos="10.00" arrivalSpeed="11.61" duration="92.00" routeLength="1015.10" waitSteps="0" timeLoss="15.70" rerouteNo="0" devices="tripinfo_left_6" vType="typeWE" vaporized=""/>
    <tripinfo id="right_7" depart="25.00" departLane="51o_0" departPos="5.10" departSpeed="0.00" departDelay="0.00" arrival="117.00" arrivalLane="52i_0" arrivalPos="10.00" arrivalSpeed="11.49" duration="92.00" routeLength="1015.10" waitSteps="0" timeLoss="15.70" rerouteNo="0" devices="tripinfo_right_7" vType="typeWE" vaporized=""/>
    <tripinfo id="right_8" depart="31.00" departLane="51o_0" departPos="5.10" departSpeed="0.00" departDelay="0.00" arrival="122.00" arrivalLane="52i_0" arrivalPos="10.00" arrivalSpeed="11.50" duration="91.00" routeLength="1015.10" waitSteps="0" timeLoss="14.35" rerouteNo="0" devices="tripinfo_right_8" vType="typeWE" vaporized=""/>
    <tripinfo id="up_5" depart="16.00" departLane="53o_0" departPos="5.10" departSpeed="0.00" departDelay="0.00" arrival="141.00" arrivalLane="54i_0" arrivalPos="10.00" arrivalSpeed="11.57" duration="125.00" routeLength="1015.10" waitSteps="24" timeLoss="48.85" rerouteNo="0" devices="tripinfo_up_5" vType="typeNS" vaporized=""/>
    <tripinfo id="down_9" depart="31.00" departLane="54o_0" departPos="5.10" departSpeed="0.00" departDelay="0.00" arrival="142.00" arrivalLane="53i_0" arrivalPos="10.00" arrivalSpeed="11.50" duration="111.00" routeLength="1015.10" waitSteps="6" timeLoss="34.64" rerouteNo="0" devices="tripinfo_down_9" vType="typeNS" vaporized=""/>
    <tripinfo id="left_10" depart="67.00" departLane="52o_0" departPos="5.10" departSpeed="0.00" departDelay="0.00" arrival="165.00" arrivalLane="51i_0" arrivalPos="10.00" arrivalSpeed="11.82" duration="98.00" routeLength="1015.10" waitSteps="0" timeLoss="22.07" rerouteNo="0" devices="tripinfo_left_10" vType="typeWE" vaporized=""/>
    <tripinfo id="left_12" depart="74.00" departLane="52o_0" departPos="5.10" departSpeed="0.00" departDelay="0.00" arrival="167.00" arrivalLane="51i_0" arrivalPos="10.00" arrivalSpeed="10.86" duration="93.00" routeLength="1015.10" waitSteps="0" timeLoss="16.92" rerouteNo="0" devices="tripinfo_left_12" vType="typeWE" vaporized=""/>
    <tripinfo id="right_13" depart="81.00" departLane="51o_0" departPos="5.10" departSpeed="0.00" departDelay="0.00" arrival="171.00" arrivalLane="52i_0" arrivalPos="10.00" arrivalSpeed="11.83" duration="90.00" routeLength="1015.10" waitSteps="0" timeLoss="13.78" rerouteNo="0" devices="tripinfo_right_13" vType="typeWE" vaporized=""/>
    <tripinfo id="down_11" depart="72.00" departLane="54o_0" departPos="5.10" departSpeed="0.00" departDelay="0.00" arrival="190.00" arrivalLane="53i_0" arrivalPos="10.00" arrivalSpeed="11.51" duration="118.00" routeLength="1015.10" waitSteps="16" timeLoss="41.66" rerouteNo="0" devices="tripinfo_down_11" vType="typeNS" vaporized=""/>
    <tripinfo id="down_14" depart="85.00" departLane="54o_0" departPos="5.10" departSpeed="0.00" departDelay="0.00" arrival="192.00" arrivalLane="53i_0" arrivalPos="10.00" arrivalSpeed="11.45" duration="107.00" routeLength="1015.10" waitSteps="4" timeLoss="31.07" rerouteNo="0" devices="tripinfo_down_14" vType="typeNS" vaporized=""/>
    <tripinfo id="down_16" depart="98.00" departLane="54o_0" departPos="5.10" departSpeed="0.00" departDelay="0.00" arrival="194.00" arrivalLane="53i_0" arrivalPos="10.00" arrivalSpeed="10.80" duration="96.00" routeLength="1015.10" waitSteps="0" timeLoss="19.94" rerouteNo="0" devices="tripinfo_down_16" vType="typeNS" vaporized=""/>
    <tripinfo id="right_15" depart="92.00" departLane="51o_0" departPos="5.10" departSpeed="0.00" departDelay="0.00" arrival="201.00" arrivalLane="52i_0" arrivalPos="10.00" arrivalSpeed="11.74" duration="109.00" routeLength="1015.10" waitSteps="6" timeLoss="32.94" rerouteNo="0" devices="tripinfo_right_15" vType="typeWE" vaporized=""/>
    <tripinfo id="down_23" depart="129.00" departLane="54o_0" departPos="5.10" departSpeed="0.00" departDelay="0.00" arrival="220.00" arrivalLane="53i_0" arrivalPos="10.00" arrivalSpeed="11.29" duration="91.00" routeLength="1015.10" waitSteps="0" timeLoss="14.29" rerouteNo="0" devices="tripinfo_down_23" vType="typeNS" vaporized=""/>
    <tripinfo id="up_17" depart="103.00" departLane="53o_0" departPos="5.10" departSpeed="0.00" departDelay="0.00" arrival="223.00" arrivalLane="54i_0" arrivalPos="10.00" arrivalSpeed="11.41" duration="120.00" routeLength="1015.10" waitSteps="16" timeLoss="43.42" rerouteNo="0" devices="tripinfo_up_17" vType="typeNS" vaporized=""/>
    <tripinfo id="up_18" depart="108.00" departLane="53o_0" departPos="5.10" departSpeed="0.00" departDelay="2.00" arrival="225.00" arrivalLane="54i_0" arrivalPos="10.00" arrivalSpeed="8.96" duration="117.00" routeLength="1015.10" waitSteps="14" timeLoss="40.94" rerouteNo="0" devices="tripinfo_up_18" vType="typeNS" vaporized=""/>
    <tripinfo id="right_22" depart="126.00" departLane="51o_0" departPos="5.10" departSpeed="0.00" departDelay="0.00" arrival="232.00" arrivalLane="52i_0" arrivalPos="10.00" arrivalSpeed="11.53" duration="106.00" routeLength="1015.10" waitSteps="5" timeLoss="29.94" rerouteNo="0" devices="tripinfo_right_22" vType="typeWE" vaporized=""/>
    <tripinfo id="left_19" depart="122.00" departLane="52o_0" departPos="5.10" departSpeed="0.00" departDelay="2.00" arrival="233.00" arrivalLane="51i_0" arrivalPos="10.00" arrivalSpeed="11.53" duration="111.00" routeLength="1015.10" waitSteps="9" timeLoss="34.70" rerouteNo="0" devices="tripinfo_left_19" vType="typeWE" vaporized=""/>
    <tripinfo id="right_24" depart="132.00" departLane="51o_0" departPos="5.10" departSpeed="0.00" departDelay="0.00" arrival="234.00" arrivalLane="52i_0" arrivalPos="10.00" arrivalSpeed="11.03" duration="102.00" routeLength="1015.10" waitSteps="0" timeLoss="25.99" rerouteNo="0" devices="tripinfo_right_24" vType="typeWE" vaporized=""/>
    <tripinfo id="left_20" depart="127.00" departLane="52o_0" departPos="5.10" departSpeed="0.00" departDelay="4.00" arrival="235.00" arrivalLane="51i_0" arrivalPos="10.00" arrivalSpeed="9.80" duration="108.00" routeLength="1015.10" waitSteps="5" timeLoss="31.93" rerouteNo="0" devices="tripinfo_left_20" vType="typeWE" vaporized=""/>
    <tripinfo id="left_21" depart="132.00" departLane="52o_0" departPos="5.10" departSpeed="0.00" departDelay="7.00" arrival="237.00" arrivalLane="51i_0" arrivalPos="10.00" arrivalSpeed="10.20" duration="105.00" routeLength="1015.10" waitSteps="2" timeLoss="28.96" rerouteNo="0" devices="tripinfo_left_21" vType="typeWE" vaporized=""/>
    <tripinfo id="left_26" depart="147.00" departLane="52o_0" departPos="5.10" departSpeed="0.00" departDelay="0.00" arrival="239.00" arrivalLane="51i_0" arrivalPos="10.00" arrivalSpeed="9.95" duration="92.00" routeLength="1015.10" waitSteps="0" timeLoss="15.80" rerouteNo="0" devices="tripinfo_left_26" vType="typeWE" vaporized=""/>
    <tripinfo id="down_27" depart="149.00" departLane="54o_0" departPos="5.10" departSpeed="0.00" departDelay="0.00" arrival="254.00" arrivalLane="53i_0" arrivalPos="10.00" arrivalSpeed="11.46" duration="105.00" routeLength="1015.10" waitSteps="3" timeLoss="29.02" rerouteNo="0" devices="tripinfo_down_27" vType="typeNS" vaporized=""/>
    <tripinfo id="up_25" depart="135.00" departLane="53o_0" departPos="5.10" departSpeed="0.00" departDelay="0.00" arrival="255.00" arrivalLane="54i_0" arrivalPos="10.00" arrivalSpeed="11.66" duration="120.00" routeLength="1015.10" waitSteps="16" timeLoss="43.37" rerouteNo="0" devices="tripinfo_up_25" vType="typeNS" vaporized=""/>
    <tripinfo id="right_29" depart="171.00" departLane="51o_0" departPos="5.10" departSpeed="0.00" departDelay="0.00" arrival="262.00" arrivalLane="52i_0" arrivalPos="10.00" arrivalSpeed="10.95" duration="91.00" routeLength="1015.10" waitSteps="0" timeLoss="14.89" rerouteNo="0" devices="tripinfo_right_29" vType="typeWE" vaporized=""/>
    <tripinfo id="left_28" depart="159.00" departLane="52o_0" departPos="5.10" departSpeed="0.00" departDelay="0.00" arrival="264.00" arrivalLane="51i_0" arrivalPos="10.00" arrivalSpeed="10.72" duration="105.00" routeLength="1015.10" waitSteps="5" timeLoss="29.00" rerouteNo="0" devices="tripinfo_left_28" vType="typeWE" vaporized=""/>
    <tripinfo id="right_30" depart="179.00" departLane="51o_0" departPos="5.10" departSpeed="0.00" departDelay="0.00" arrival="270.00" arrivalLane="52i_0" arrivalPos="10.00" arrivalSpeed="11.68" duration="91.00" routeLength="1015.10" waitSteps="0" timeLoss="14.85" rerouteNo="0" devices="tripinfo_right_30" vType="typeWE" vaporized=""/>
    <tripinfo id="right_31" depart="184.00" departLane="51o_0" departPos="5.10" departSpeed="0.00" departDelay="2.00" arrival="276.00" arrivalLane="52i_0" arrivalPos="10.00" arrivalSpeed="11.74" duration="92.00" routeLength="1015.10" waitSteps="0" timeLoss="15.66" rerouteNo="0" devices="tripinfo_right_31" vType="typeWE" vaporized=""/>
    <tripinfo id="right_33" depart="216.00" departLane="51o_0" departPos="5.10" departSpeed="0.00" departDelay="0.00" arrival="307.00" arrivalLane="52i_0" arrivalPos="10.00" arrivalSpeed="11.42" duration="91.00" routeLength="1015.10" waitSteps="0" timeLoss="14.73" rerouteNo="0" devices="tripinfo_right_33" vType="typeWE" vaporized=""/>
    <tripinfo id="left_32" depart="204.00" departLane="52o_0" departPos="5.10" departSpeed="0.00" departDelay="0.00" arrival="312.00" arrivalLane="51i_0" arrivalPos="10.00" arrivalSpeed="11.09" duration="108.00" routeLength="1015.10" waitSteps="6" timeLoss="31.99" rerouteNo="0" devices="tripinfo_left_32" vType="typeWE" vaporized=""/>
    <tripinfo id="right_35" depart="227.00" departLane="51o_0" departPos="5.10" departSpeed="0.00" departDelay="0.00" arrival="319.00" arrivalLane="52i_0" arrivalPos="10.00" arrivalSpeed="11.50" duration="92.00" routeLength="1015.10" waitSteps="0" timeLoss="15.69" rerouteNo="0" devices="tripinfo_right_35" vType="typeWE" vaporized=""/>
    <tripinfo id="down_34" depart="220.00" departLane="54o_0" departPos="5.10" departSpeed="0.00" departDelay="0.00" arrival="334.00" arrivalLane="53i_0" arrivalPos="10.00" arrivalSpeed="11.58" duration="114.00" routeLength="1015.10" waitSteps="11" timeLoss="37.83" rerouteNo="0" devices="tripinfo_down_34" vType="typeNS" vaporized=""/>
    <tripinfo id="down_37" depart="241.00" departLane="54o_0" departPos="5.10" departSpeed="0.00" departDelay="0.00" arrival="336.00" arrivalLane="53i_0" arrivalPos="10.00" arrivalSpeed="10.03" duration="95.00" routeLength="1015.10" waitSteps="0" timeLoss="18.87" rerouteNo="0" devices="tripinfo_down_37" vType="typeNS" vaporized=""/>
    <tripinfo id="right_36" depart="239.00" departLane="51o_0" departPos="5.10" departSpeed="0.00" departDelay="0.00" arrival="344.00" arrivalLane="52i_0" arrivalPos="10.00" arrivalSpeed="11.65" duration="105.00" routeLength="1015.10" waitSteps="4" timeLoss="29.18" rerouteNo="0" devices="tripinfo_right_36" vType="typeWE" vaporized=""/>
    <tripinfo id="left_39" depart="253.00" departLane="52o_0" departPos="5.10" departSpeed="0.00" departDelay="0.00" arrival="344.00" arrivalLane="51i_0" arrivalPos="10.00" arrivalSpeed="11.63" duration="91.00" routeLength="1015.10" waitSteps="0" timeLoss="14.75" rerouteNo="0" devices="tripinfo_left_39" vType="typeWE" vaporized=""/>
    <tripinfo id="left_41" depart="258.00" departLane="52o_0" departPos="5.10" departSpeed="0.00" departDelay="0.00" arrival="350.00" arrivalLane="51i_0" arrivalPos="10.00" arrivalSpeed="11.57" duration="92.00" routeLength="1015.10" waitSteps="0" timeLoss="15.71" rerouteNo="0" devices="tripinfo_left_41" vType="typeWE" vaporized=""/>
    <tripinfo id="down_40" depart="256.00" departLane="54o_0" departPos="5.10" departSpeed="0.00" departDelay="0.00" arrival="366.00" arrivalLane="53i_0" arrivalPos="10.00" arrivalSpeed="10.99" duration="110.00" routeLength="1015.10" waitSteps="9" timeLoss="33.98" rerouteNo="0" devices="tripinfo_down_40" vType="typeNS" vaporized=""/>
    <tripinfo id="up_38" depart="248.00" departLane="53o_0" departPos="5.10" departSpeed="0.00" departDelay="0.00" arrival="366.00" arrivalLane="54i_0" arrivalPos="10.00" arrivalSpeed="11.61" duration="118.00" routeLength="1015.10" waitSteps="16" timeLoss="41.63" rerouteNo="0" devices="tripinfo_up_38" vType="typeNS" vaporized=""/>
    <tripinfo id="down_42" depart="261.00" departLane="54o_0" departPos="5.10" departSpeed="0.00" departDelay="3.00" arrival="368.00" arrivalLane="53i_0" arrivalPos="10.00" arrivalSpeed="11.05" duration="107.00" routeLength="1015.10" waitSteps="4" timeLoss="30.97" rerouteNo="0" devices="tripinfo_down_42" vType="typeNS" vaporized=""/>
    <tripinfo id="left_43" depart="263.00" departLane="52o_0" departPos="5.10" departSpeed="0.00" departDelay="1.00" arrival="376.00" arrivalLane="51i_0" arrivalPos="10.00" arrivalSpeed="11.45" duration="113.00" routeLength="1015.10" waitSteps="9" timeLoss="37.09" rerouteNo="0" devices="tripinfo_left_43" vType="typeWE" vaporized=""/>
    <tripinfo id="left_44" depart="281.00" departLane="52o_0" departPos="5.10" departSpeed="0.00" departDelay="0.00" arrival="378.00" arrivalLane="51i_0" arrivalPos="10.00" arrivalSpeed="11.08" duration="97.00" routeLength="1015.10" waitSteps="0" timeLoss="21.08" rerouteNo="0" devices="tripinfo_left_44" vType="typeWE" vaporized=""/>
    <tripinfo id="left_45" depart="287.00" departLane="52o_0" departPos="5.10" departSpeed="0.00" departDelay="4.00" arrival="380.00" arrivalLane="51i_0" arrivalPos="10.00" arrivalSpeed="10.82" duration="93.00" routeLength="1015.10" waitSteps="0" timeLoss="16.84" rerouteNo="0" devices="tripinfo_left_45" vType="typeWE" vaporized=""/>
    <tripinfo id="right_48" depart="292.00" departLane="51o_0" departPos="5.10" departSpeed="0.00" departDelay="0.00" arrival="383.00" arrivalLane="52i_0" arrivalPos="10.00" arrivalSpeed="11.70" duration="91.00" routeLength="1015.10" waitSteps="0" timeLoss="14.27" rerouteNo="0" devices="tripinfo_right_48" vType="typeWE" vaporized=""/>
    <tripinfo id="left_47" depart="292.00" departLane="52o_0" departPos="5.10" departSpeed="0.00" departDelay="1.00" arrival="383.00" arrivalLane="51i_0" arrivalPos="10.00" arrivalSpeed="11.58" duration="91.00" routeLength="1015.10" waitSteps="0" timeLoss="14.75" rerouteNo="0" devices="tripinfo_left_47" vType="typeWE" vaporized=""/>
    <tripinfo id="down_49" depart="293.00" departLane="54o_0" departPos="5.10" departSpeed="0.00" departDelay="0.00" arrival="399.00" arrivalLane="53i_0" arrivalPos="10.00" arrivalSpeed="11.52" duration="106.00" routeLength="1015.10" waitSteps="3" timeLoss="29.45" rerouteNo="0" devices="tripinfo_down_49" vType="typeNS" vaporized=""/>
    <tripinfo id="up_46" depart="284.00" departLane="53o_0" departPos="5.10" departSpeed="0.00" departDelay="0.00" arrival="399.00" arrivalLane="54i_0" arrivalPos="10.00" arrivalSpeed="11.72" duration="115.00" routeLength="1015.10" waitSteps="11" timeLoss="39.11" rerouteNo="0" devices="tripinfo_up_46" vType="typeNS" vaporized=""/>
    <tripinfo id="right_50" depart="297.00" departLane="51o_0" departPos="5.10" departSpeed="0.00" departDelay="1.00" arrival="408.00" arrivalLane="52i_0" arrivalPos="10.00" arrivalSpeed="11.79" duration="111.00" routeLength="1015.10" waitSteps="9" timeLoss="34.97" rerouteNo="0" devices="tripinfo_right_50" vType="typeWE" vaporized=""/>
    <tripinfo id="left_51" depart="297.00" departLane="52o_0" departPos="5.10" departSpeed="0.00" departDelay="1.00" arrival="408.00" arrivalLane="51i_0" arrivalPos="10.00" arrivalSpeed="11.45" duration="111.00" routeLength="1015.10" waitSteps="8" timeLoss="35.18" rerouteNo="0" devices="tripinfo_left_51" vType="typeWE" vaporized=""/>
    <tripinfo id="left_52" depart="302.00" departLane="52o_0" departPos="5.10" departSpeed="0.00" departDelay="4.00" arrival="410.00" arrivalLane="51i_0" arrivalPos="10.00" arrivalSpeed="11.34" duration="108.00" routeLength="1015.10" waitSteps="6" timeLoss="32.12" rerouteNo="0" devices="tripinfo_left_52" vType="typeWE" vaporized=""/>
    <tripinfo id="up_54" depart="344.00" departLane="53o_0" departPos="5.10" departSpeed="0.00" departDelay="0.00" arrival="444.00" arrivalLane="54i_0" arrivalPos="10.00" arrivalSpeed="11.51" duration="100.00" routeLength="1015.10" waitSteps="0" timeLoss="24.00" rerouteNo="0" devices="tripinfo_up_54" vType="typeNS" vaporized=""/>
    <tripinfo id="up_55" depart="349.00" departLane="53o_0" departPos="5.10" departSpeed="0.00" departDelay="2.00" arrival="446.00" arrivalLane="54i_0" arrivalPos="10.00" arrivalSpeed="10.73" duration="97.00" routeLength="1015.10" waitSteps="0" timeLoss="20.91" rerouteNo="0" devices="tripinfo_up_55" vType="typeNS" vaporized=""/>
    <tripinfo id="left_53" depart="344.00" departLane="52o_0" departPos="5.10" departSpeed="0.00" departDelay="1.00" arrival="456.00" arrivalLane="51i_0" arrivalPos="10.00" arrivalSpeed="10.94" duration="112.00" routeLength="1015.10" waitSteps="9" timeLoss="36.02" rerouteNo="0" devices="tripinfo_left_53" vType="typeWE" vaporized=""/>
    <tripinfo id="right_57" depart="352.00" departLane="51o_0" departPos="5.10" departSpeed="0.00" departDelay="0.00" arrival="457.00" arrivalLane="52i_0" arrivalPos="10.00" arrivalSpeed="11.19" duration="105.00" routeLength="1015.10" waitSteps="3" timeLoss="28.52" rerouteNo="0" devices="tripinfo_right_57" vType="typeWE" vaporized=""/>
    <tripinfo id="right_60" depart="363.00" departLane="51o_0" departPos="5.10" departSpeed="0.00" departDelay="0.00" arrival="459.00" arrivalLane="52i_0" arrivalPos="10.00" arrivalSpeed="9.19" duration="96.00" routeLength="1015.10" waitSteps="0" timeLoss="19.97" rerouteNo="0" devices="tripinfo_right_60" vType="typeWE" vaporized=""/>
    <tripinfo id="left_56" depart="350.00" departLane="52o_0" departPos="5.10" departSpeed="0.00" departDelay="0.00" arrival="459.00" arrivalLane="51i_0" arrivalPos="10.00" arrivalSpeed="11.46" duration="109.00" routeLength="1015.10" waitSteps="6" timeLoss="32.76" rerouteNo="0" devices="tripinfo_left_56" vType="typeWE" vaporized=""/>
    <tripinfo id="left_58" depart="357.00" departLane="52o_0" departPos="5.10" departSpeed="0.00" departDelay="0.00" arrival="461.00" arrivalLane="51i_0" arrivalPos="10.00" arrivalSpeed="10.67" duration="104.00" routeLength="1015.10" waitSteps="0" timeLoss="27.98" rerouteNo="0" devices="tripinfo_left_58" vType="typeWE" vaporized=""/>
    <tripinfo id="left_59" depart="362.00" departLane="52o_0" departPos="5.10" departSpeed="0.00" departDelay="3.00" arrival="463.00" arrivalLane="51i_0" arrivalPos="10.00" arrivalSpeed="11.43" duration="101.00" routeLength="1015.10" waitSteps="0" timeLoss="25.00" rerouteNo="0" devices="tripinfo_left_59" vType="typeWE" vaporized=""/>
    <tripinfo id="left_61" depart="372.00" departLane="52o_0" departPos="5.10" departSpeed="0.00" departDelay="0.00" arrival="465.00" arrivalLane="51i_0" arrivalPos="10.00" arrivalSpeed="10.82" duration="93.00" routeLength="1015.10" waitSteps="0" timeLoss="17.04" rerouteNo="0" devices="tripinfo_left_61" vType="typeWE" vaporized=""/>
    <tripinfo id="left_62" depart="377.00" departLane="52o_0" departPos="5.10" departSpeed="0.00" departDelay="1.00" arrival="469.00" arrivalLane="51i_0" arrivalPos="10.00" arrivalSpeed="11.34" duration="92.00" routeLength="1015.10" waitSteps="0" timeLoss="15.82" rerouteNo="0" devices="tripinfo_left_62" vType="typeWE" vaporized=""/>
    <tripinfo id="right_63" depart="389.00" departLane="51o_0" departPos="5.10" departSpeed="0.00" departDelay="0.00" arrival="480.00" arrivalLane="52i_0" arrivalPos="10.00" arrivalSpeed="11.30" duration="91.00" routeLength="1015.10" waitSteps="0" timeLoss="15.13" rerouteNo="0" devices="tripinfo_right_63" vType="typeWE" vaporized=""/>
    <tripinfo id="left_65" depart="402.00" departLane="52o_0" departPos="5.10" departSpeed="0.00" departDelay="0.00" arrival="493.00" arrivalLane="51i_0" arrivalPos="10.00" arrivalSpeed="11.40" duration="91.00" routeLength="1015.10" waitSteps="0" timeLoss="14.79" rerouteNo="0" devices="tripinfo_left_65" vType="typeWE" vaporized=""/>
    <tripinfo id="right_64" depart="402.00" departLane="51o_0" departPos="5.10" departSpeed="0.00" departDelay="0.00" arrival="494.00" arrivalLane="52i_0" arrivalPos="10.00" arrivalSpeed="11.06" duration="92.00" routeLength="1015.10" waitSteps="0" timeLoss="15.88" rerouteNo="0" devices="tripinfo_right_64" vType="typeWE" vaporized=""/>
    <tripinfo id="left_66" depart="414.00" departLane="52o_0" departPos="5.10" departSpeed="0.00" departDelay="0.00" arrival="505.00" arrivalLane="51i_0" arrivalPos="10.00" arrivalSpeed="11.31" duration="91.00" routeLength="1015.10" waitSteps="0" timeLoss="14.89" rerouteNo="0" devices="tripinfo_left_66" vType="typeWE" vaporized=""/>
    <tripinfo id="left_67" depart="430.00" departLane="52o_0" departPos="5.10" departSpeed="0.00" departDelay="0.00" arrival="521.00" arrivalLane="51i_0" arrivalPos="10.00" arrivalSpeed="11.63" duration="91.00" routeLength="1015.10" waitSteps="0" timeLoss="15.01" rerouteNo="0" devices="tripinfo_left_67" vType="typeWE" vaporized=""/>
    <tripinfo id="down_69" depart="434.00" departLane="54o_0" departPos="5.10" departSpeed="0.00" departDelay="0.00" arrival="541.00" arrivalLane="53i_0" arrivalPos="10.00" arrivalSpeed="11.01" duration="107.00" routeLength="1015.10" waitSteps="6" timeLoss="30.92" rerouteNo="0" devices="tripinfo_down_69" vType="typeNS" vaporized=""/>
    <tripinfo id="up_68" depart="433.00" departLane="53o_0" departPos="5.10" departSpeed="0.00" departDelay="0.00" arrival="543.00" arrivalLane="54i_0" arrivalPos="10.00" arrivalSpeed="11.41" duration="110.00" routeLength="1015.10" waitSteps="8" timeLoss="33.78" rerouteNo="0" devices="tripinfo_up_68" vType="typeNS" vaporized=""/>
    <tripinfo id="up_70" depart="451.00" departLane="53o_0" departPos="5.10" departSpeed="0.00" departDelay="0.00" arrival="545.00" arrivalLane="54i_0" arrivalPos="10.00" arrivalSpeed="10.38" duration="94.00" routeLength="1015.10" waitSteps="0" timeLoss="17.68" rerouteNo="0" devices="tripinfo_up_70" vType="typeNS" vaporized=""/>
    <tripinfo id="down_72" depart="468.00" departLane="54o_0" departPos="5.10" departSpeed="0.00" departDelay="0.00" arrival="559.00" arrivalLane="53i_0" arrivalPos="10.00" arrivalSpeed="11.80" duration="91.00" routeLength="1015.10" waitSteps="0" timeLoss="14.73" rerouteNo="0" devices="tripinfo_down_72" vType="typeNS" vaporized=""/>
    <tripinfo id="right_71" depart="459.00" departLane="51o_0" departPos="5.10" departSpeed="0.00" departDelay="0.00" arrival="568.00" arrivalLane="52i_0" arrivalPos="10.00" arrivalSpeed="11.79" duration="109.00" routeLength="1015.10" waitSteps="7" timeLoss="32.81" rerouteNo="0" devices="tripinfo_right_71" vType="typeWE" vaporized=""/>
    <tripinfo id="right_73" depart="483.00" departLane="51o_0" departPos="5.10" departSpeed="0.00" departDelay="0.00" arrival="575.00" arrivalLane="52i_0" arrivalPos="10.00" arrivalSpeed="11.46" duration="92.00" routeLength="1015.10" waitSteps="0" timeLoss="16.01" rerouteNo="0" devices="tripinfo_right_73" vType="typeWE" vaporized=""/>
    <tripinfo id="down_76" depart="490.00" departLane="54o_0" departPos="5.10" departSpeed="0.00" departDelay="0.00" arrival="582.00" arrivalLane="53i_0" arrivalPos="10.00" arrivalSpeed="11.68" duration="92.00" routeLength="1015.10" waitSteps="0" timeLoss="16.05" rerouteNo="0" devices="tripinfo_down_76" vType="typeNS" vaporized=""/>
    <tripinfo id="down_77" depart="495.00" departLane="54o_0" departPos="5.10" departSpeed="0.00" departDelay="1.00" arrival="587.00" arrivalLane="53i_0" arrivalPos="10.00" arrivalSpeed="11.61" duration="92.00" routeLength="1015.10" waitSteps="0" timeLoss="15.79" rerouteNo="0" devices="tripinfo_down_77" vType="typeNS" vaporized=""/>
    <tripinfo id="up_74" depart="484.00" departLane="53o_0" departPos="5.10" departSpeed="0.00" departDelay="0.00" arrival="591.00" arrivalLane="54i_0" arrivalPos="10.00" arrivalSpeed="11.50" duration="107.00" routeLength="1015.10" waitSteps="5" timeLoss="30.79" rerouteNo="0" devices="tripinfo_up_74" vType="typeNS" vaporized=""/>
    <tripinfo id="right_79" depart="496.00" departLane="51o_0" departPos="5.10" departSpeed="0.00" departDelay="0.00" arrival="601.00" arrivalLane="52i_0" arrivalPos="10.00" arrivalSpeed="11.67" duration="105.00" routeLength="1015.10" waitSteps="3" timeLoss="28.51" rerouteNo="0" devices="tripinfo_right_79" vType="typeWE" vaporized=""/>
    <tripinfo id="left_75" depart="490.00" departLane="52o_0" departPos="5.10" departSpeed="0.00" departDelay="0.00" arrival="601.00" arrivalLane="51i_0" arrivalPos="10.00" arrivalSpeed="11.26" duration="111.00" routeLength="1015.10" waitSteps="6" timeLoss="34.65" rerouteNo="0" devices="tripinfo_left_75" vType="typeWE" vaporized=""/>
    <tripinfo id="left_78" depart="495.00" departLane="52o_0" departPos="5.10" departSpeed="0.00" departDelay="0.00" arrival="603.00" arrivalLane="51i_0" arrivalPos="10.00" arrivalSpeed="9.66" duration="108.00" routeLength="1015.10" waitSteps="4" timeLoss="31.97" rerouteNo="0" devices="tripinfo_left_78" vType="typeWE" vaporized=""/>
    <tripinfo id="up_81" depart="525.00" departLane="53o_0" departPos="5.10" departSpeed="0.00" departDelay="0.00" arrival="616.00" arrivalLane="54i_0" arrivalPos="10.00" arrivalSpeed="11.62" duration="91.00" routeLength="1015.10" waitSteps="0" timeLoss="15.04" rerouteNo="0" devices="tripinfo_up_81" vType="typeNS" vaporized=""/>
    <tripinfo id="down_80" depart="512.00" departLane="54o_0" departPos="5.10" departSpeed="0.00" departDelay="0.00" arrival="623.00" arrivalLane="53i_0" arrivalPos="10.00" arrivalSpeed="11.56" duration="111.00" routeLength="1015.10" waitSteps="8" timeLoss="34.46" rerouteNo="0" devices="tripinfo_down_80" vType="typeNS" vaporized=""/>
    <tripinfo id="down_84" depart="530.00" departLane="54o_0" departPos="5.10" departSpeed="0.00" departDelay="0.00" arrival="625.00" arrivalLane="53i_0" arrivalPos="10.00" arrivalSpeed="8.12" duration="95.00" routeLength="1015.10" waitSteps="0" timeLoss="19.01" rerouteNo="0" devices="tripinfo_down_84" vType="typeNS" vaporized=""/>
    <tripinfo id="left_86" depart="538.00" departLane="52o_0" departPos="5.10" departSpeed="0.00" departDelay="0.00" arrival="629.00" arrivalLane="51i_0" arrivalPos="10.00" arrivalSpeed="11.59" duration="91.00" routeLength="1015.10" waitSteps="0" timeLoss="14.79" rerouteNo="0" devices="tripinfo_left_86" vType="typeWE" vaporized=""/>
    <tripinfo id="right_82" depart="528.00" departLane="51o_0" departPos="5.10" departSpeed="0.00" departDelay="0.00" arrival="632.00" arrivalLane="52i_0" arrivalPos="10.00" arrivalSpeed="11.45" duration="104.00" routeLength="1015.10" waitSteps="2" timeLoss="28.25" rerouteNo="0" devices="tripinfo_right_82" vType="typeWE" vaporized=""/>
    <tripinfo id="right_83" depart="533.00" departLane="51o_0" departPos="5.10" departSpeed="0.00" departDelay="3.00" arrival="634.00" arrivalLane="52i_0" arrivalPos="10.00" arrivalSpeed="11.47" duration="101.00" routeLength="1015.10" waitSteps="0" timeLoss="24.95" rerouteNo="0" devices="tripinfo_right_83" vType="typeWE" vaporized=""/>