<?xml version="1.0" encoding="UTF-8"?>

<!-- generated on Sun 27 Nov 2016 10:40:22 PM EST by SUMO gui Version 0.25.0
<?xml version="1.0" encoding="UTF-8"?>

<configuration xmlns:xsi="http://www.w3.org/2001/XMLSchema-instance" xsi:noNamespaceSchemaLocation="http://sumo.dlr.de/xsd/sumo-gui.exeConfiguration.xsd">

    <input>
        <net-file value="data/cross.net.xml"/>
        <route-files value="data/cross.rou.xml"/>
        <additional-files value="data/cross.det.xml"/>
    </input>

    <output>
        <tripinfo-output value="tripinfo.xml"/>
        <save-state.prefix value="data/state"/>
    </output>

    <time>
        <begin value="0"/>
    </time>

    <report>
        <verbose value="true"/>
        <no-step-log value="true"/>
    </report>

    <emissions>
        <phemlight-path value="data/./PHEMlight/"/>
    </emissions>

    <traci_server>
        <remote-port value="8873"/>
    </traci_server>

</configuration>
-->

<tripinfos xmlns:xsi="http://www.w3.org/2001/XMLSchema-instance" xsi:noNamespaceSchemaLocation="http://sumo.dlr.de/xsd/tripinfo_file.xsd">
    <tripinfo id="left_0" depart="0.00" departLane="52o_0" departPos="5.10" departSpeed="0.00" departDelay="0.00" arrival="90.00" arrivalLane="51i_0" arrivalPos="10.00" arrivalSpeed="10.79" duration="90.00" routeLength="1015.10" waitSteps="0" timeLoss="13.84" rerouteNo="0" devices="tripinfo_left_0" vType="typeWE" vaporized=""/>
    <tripinfo id="right_3" depart="3.00" departLane="51o_0" departPos="5.10" departSpeed="0.00" departDelay="0.00" arrival="95.00" arrivalLane="52i_0" arrivalPos="10.00" arrivalSpeed="11.24" duration="92.00" routeLength="1015.10" waitSteps="0" timeLoss="15.30" rerouteNo="0" devices="tripinfo_right_3" vType="typeWE" vaporized=""/>
    <tripinfo id="down_5" depart="6.00" departLane="54o_0" departPos="5.10" departSpeed="0.00" departDelay="0.00" arrival="109.00" arrivalLane="53i_0" arrivalPos="10.00" arrivalSpeed="11.31" duration="103.00" routeLength="1015.10" waitSteps="2" timeLoss="26.67" rerouteNo="0" devices="tripinfo_down_5" vType="typeNS" vaporized=""/>
    <tripinfo id="up_1" depart="1.00" departLane="53o_0" departPos="5.10" departSpeed="0.00" departDelay="0.00" arrival="110.00" arrivalLane="54i_0" arrivalPos="10.00" arrivalSpeed="11.54" duration="109.00" routeLength="1015.10" waitSteps="5" timeLoss="32.39" rerouteNo="0" devices="tripinfo_up_1" vType="typeNS" vaporized=""/>
    <tripinfo id="up_4" depart="6.00" departLane="53o_0" departPos="5.10" departSpeed="0.00" departDelay="2.00" arrival="112.00" arrivalLane="54i_0" arrivalPos="10.00" arrivalSpeed="9.40" duration="106.00" routeLength="1015.10" waitSteps="3" timeLoss="30.06" rerouteNo="0" devices="tripinfo_up_4" vType="typeNS" vaporized=""/>
    <tripinfo id="down_12" depart="23.00" departLane="54o_0" departPos="5.10" departSpeed="0.00" departDelay="0.00" arrival="114.00" arrivalLane="53i_0" arrivalPos="10.00" arrivalSpeed="11.16" duration="91.00" routeLength="1015.10" waitSteps="0" timeLoss="15.15" rerouteNo="0" devices="tripinfo_down_12" vType="typeNS" vaporized=""/>
    <tripinfo id="up_6" depart="11.00" departLane="53o_0" departPos="5.10" departSpeed="0.00" departDelay="5.00" arrival="114.00" arrivalLane="54i_0" arrivalPos="10.00" arrivalSpeed="11.68" duration="103.00" routeLength="1015.10" waitSteps="0" timeLoss="26.96" rerouteNo="0" devices="tripinfo_up_6" vType="typeNS" vaporized=""/>
    <tripinfo id="up_9" depart="16.00" departLane="53o_0" departPos="5.10" departSpeed="0.00" departDelay="0.00" arrival="116.00" arrivalLane="54i_0" arrivalPos="10.00" arrivalSpeed="11.22" duration="100.00" routeLength="1015.10" waitSteps="0" timeLoss="24.03" rerouteNo="0" devices="tripinfo_up_9" vType="typeNS" vaporized=""/>
    <tripinfo id="down_15" depart="31.00" departLane="54o_0" departPos="5.10" departSpeed="0.00" departDelay="0.00" arrival="122.00" arrivalLane="53i_0" arrivalPos="10.00" arrivalSpeed="11.60" duration="91.00" routeLength="1015.10" waitSteps="0" timeLoss="14.43" rerouteNo="0" devices="tripinfo_down_15" vType="typeNS" vaporized=""/>
    <tripinfo id="up_16" depart="32.00" departLane="53o_0" departPos="5.10" departSpeed="0.00" departDelay="0.00" arrival="123.00" arrivalLane="54i_0" arrivalPos="10.00" arrivalSpeed="11.43" duration="91.00" routeLength="1015.10" waitSteps="0" timeLoss="14.87" rerouteNo="0" devices="tripinfo_up_16" vType="typeNS" vaporized=""/>
    <tripinfo id="down_17" depart="36.00" departLane="54o_0" departPos="5.10" departSpeed="0.00" departDelay="3.00" arrival="127.00" arrivalLane="53i_0" arrivalPos="10.00" arrivalSpeed="11.64" duration="91.00" routeLength="1015.10" waitSteps="0" timeLoss="14.59" rerouteNo="0" devices="tripinfo_down_17" vType="typeNS" vaporized=""/>
    <tripinfo id="left_2" depart="5.00" departLane="52o_0" departPos="5.10" departSpeed="0.00" departDelay="3.00" arrival="146.00" arrivalLane="51i_0" arrivalPos="10.00" arrivalSpeed="11.64" duration="141.00" routeLength="1015.10" waitSteps="39" timeLoss="65.04" rerouteNo="0" devices="tripinfo_left_2" vType="typeWE" vaporized=""/>
    <tripinfo id="right_8" depart="11.00" departLane="51o_0" departPos="5.10" departSpeed="0.00" departDelay="0.00" arrival="146.00" arrivalLane="52i_0" arrivalPos="10.00" arrivalSpeed="11.64" duration="135.00" routeLength="1015.10" waitSteps="33" timeLoss="58.97" rerouteNo="0" devices="tripinfo_right_8" vType="typeWE" vaporized=""/>
    <tripinfo id="left_7" depart="10.00" departLane="52o_0" departPos="5.10" departSpeed="0.00" departDelay="0.00" arrival="149.00" arrivalLane="51i_0" arrivalPos="10.00" arrivalSpeed="11.41" duration="139.00" routeLength="1015.10" waitSteps="36" timeLoss="62.49" rerouteNo="0" devices="tripinfo_left_7" vType="typeWE" vaporized=""/>
    <tripinfo id="right_10" depart="22.00" departLane="51o_0" departPos="5.10" departSpeed="0.00" departDelay="0.00" arrival="149.00" arrivalLane="52i_0" arrivalPos="10.00" arrivalSpeed="11.53" duration="127.00" routeLength="1015.10" waitSteps="21" timeLoss="51.21" rerouteNo="0" devices="tripinfo_right_10" vType="typeWE" vaporized=""/>
    <tripinfo id="down_26" depart="57.00" departLane="54o_0" departPos="5.10" departSpeed="0.00" departDelay="0.00" arrival="161.00" arrivalLane="53i_0" arrivalPos="10.00" arrivalSpeed="11.59" duration="104.00" routeLength="1015.10" waitSteps="1" timeLoss="27.74" rerouteNo="0" devices="tripinfo_down_26" vType="typeNS" vaporized=""/>
    <tripinfo id="up_22" depart="45.00" departLane="53o_0" departPos="5.10" departSpeed="0.00" departDelay="0.00" arrival="162.00" arrivalLane="54i_0" arrivalPos="10.00" arrivalSpeed="11.46" duration="117.00" routeLength="1015.10" waitSteps="15" timeLoss="40.64" rerouteNo="0" devices="tripinfo_up_22" vType="typeNS" vaporized=""/>
    <tripinfo id="down_31" depart="72.00" departLane="54o_0" departPos="5.10" departSpeed="0.00" departDelay="0.00" arrival="163.00" arrivalLane="53i_0" arrivalPos="10.00" arrivalSpeed="9.67" duration="91.00" routeLength="1015.10" waitSteps="0" timeLoss="14.77" rerouteNo="0" devices="tripinfo_down_31" vType="typeNS" vaporized=""/>
    <tripinfo id="up_24" depart="51.00" departLane="53o_0" departPos="5.10" departSpeed="0.00" departDelay="0.00" arrival="164.00" arrivalLane="54i_0" arrivalPos="10.00" arrivalSpeed="8.78" duration="113.00" routeLength="1015.10" waitSteps="8" timeLoss="36.96" rerouteNo="0" devices="tripinfo_up_24" vType="typeNS" vaporized=""/>
    <tripinfo id="up_30" depart="71.00" departLane="53o_0" departPos="5.10" departSpeed="0.00" departDelay="0.00" arrival="166.00" arrivalLane="54i_0" arrivalPos="10.00" arrivalSpeed="9.05" duration="95.00" routeLength="1015.10" waitSteps="0" timeLoss="18.96" rerouteNo="0" devices="tripinfo_up_30" vType="typeNS" vaporized=""/>
    <tripinfo id="down_33" depart="77.00" departLane="54o_0" departPos="5.10" departSpeed="0.00" departDelay="3.00" arrival="169.00" arrivalLane="53i_0" arrivalPos="10.00" arrivalSpeed="11.52" duration="92.00" routeLength="1015.10" waitSteps="0" timeLoss="15.81" rerouteNo="0" devices="tripinfo_down_33" vType="typeNS" vaporized=""/>
    <tripinfo id="down_35" depart="85.00" departLane="54o_0" departPos="5.10" departSpeed="0.00" departDelay="0.00" arrival="177.00" arrivalLane="53i_0" arrivalPos="10.00" arrivalSpeed="11.26" duration="92.00" routeLength="1015.10" waitSteps="0" timeLoss="15.71" rerouteNo="0" devices="tripinfo_down_35" vType="typeNS" vaporized=""/>
    <tripinfo id="up_37" depart="93.00" departLane="53o_0" departPos="5.10" departSpeed="0.00" departDelay="0.00" arrival="184.00" arrivalLane="54i_0" arrivalPos="10.00" arrivalSpeed="11.78" duration="91.00" routeLength="1015.10" waitSteps="0" timeLoss="14.98" rerouteNo="0" devices="tripinfo_up_37" vType="typeNS" vaporized=""/>
    <tripinfo id="left_11" depart="22.00" departLane="52o_0" departPos="5.10" departSpeed="0.00" departDelay="0.00" arrival="198.00" arrivalLane="51i_0" arrivalPos="10.00" arrivalSpeed="11.30" duration="176.00" routeLength="1015.10" waitSteps="68" timeLoss="99.69" rerouteNo="0" devices="tripinfo_left_11" vType="typeWE" vaporized=""/>
    <tripinfo id="right_13" depart="27.00" departLane="51o_0" departPos="5.10" departSpeed="0.00" departDelay="2.00" arrival="199.00" arrivalLane="52i_0" arrivalPos="10.00" arrivalSpeed="11.52" duration="172.00" routeLength="1015.10" waitSteps="58" timeLoss="95.47" rerouteNo="0" devices="tripinfo_right_13" vType="typeWE" vaporized=""/>
    <tripinfo id="down_38" depart="98.00" departLane="54o_0" departPos="5.10" departSpeed="0.00" departDelay="0.00" arrival="208.00" arrivalLane="53i_0" arrivalPos="10.00" arrivalSpeed="11.64" duration="110.00" routeLength="1015.10" waitSteps="9" timeLoss="33.96" rerouteNo="0" devices="tripinfo_down_38" vType="typeNS" vaporized=""/>
    <tripinfo id="up_40" depart="103.00" departLane="53o_0" departPos="5.10" departSpeed="0.00" departDelay="0.00" arrival="208.00" arrivalLane="54i_0" arrivalPos="10.00" arrivalSpeed="11.56" duration="105.00" routeLength="1015.10" waitSteps="2" timeLoss="28.97" rerouteNo="0" devices="tripinfo_up_40" vType="typeNS" vaporized=""/>
    <tripinfo id="down_39" depart="103.00" departLane="54o_0" departPos="5.10" departSpeed="0.00" departDelay="2.00" arrival="210.00" arrivalLane="53i_0" arrivalPos="10.00" arrivalSpeed="10.54" duration="107.00" routeLength="1015.10" waitSteps="4" timeLoss="30.99" rerouteNo="0" devices="tripinfo_down_39" vType="typeNS" vaporized=""/>
    <tripinfo id="up_41" depart="109.00" departLane="53o_0" departPos="5.10" departSpeed="0.00" departDelay="5.00" arrival="210.00" arrivalLane="54i_0" arrivalPos="10.00" arrivalSpeed="10.91" duration="101.00" routeLength="1015.10" waitSteps="0" timeLoss="24.99" rerouteNo="0" devices="tripinfo_up_41" vType="typeNS" vaporized=""/>
    <tripinfo id="up_42" depart="114.00" departLane="53o_0" departPos="5.10" departSpeed="0.00" departDelay="8.00" arrival="212.00" arrivalLane="54i_0" arrivalPos="10.00" arrivalSpeed="10.32" duration="98.00" routeLength="1015.10" waitSteps="0" timeLoss="21.91" rerouteNo="0" devices="tripinfo_up_42" vType="typeNS" vaporized=""/>
    <tripinfo id="up_43" depart="119.00" departLane="53o_0" departPos="5.10" departSpeed="0.00" departDelay="11.00" arrival="214.00" arrivalLane="54i_0" arrivalPos="10.00" arrivalSpeed="9.88" duration="95.00" routeLength="1015.10" waitSteps="0" timeLoss="18.84" rerouteNo="0" devices="tripinfo_up_43" vType="typeNS" vaporized=""/>
    <tripinfo id="down_52" depart="129.00" departLane="54o_0" departPos="5.10" departSpeed="0.00" departDelay="0.00" arrival="219.00" arrivalLane="53i_0" arrivalPos="10.00" arrivalSpeed="11.52" duration="90.00" routeLength="1015.10" waitSteps="0" timeLoss="13.97" rerouteNo="0" devices="tripinfo_down_52" vType="typeNS" vaporized=""/>
    <tripinfo id="up_54" depart="135.00" departLane="53o_0" departPos="5.10" departSpeed="0.00" departDelay="0.00" arrival="227.00" arrivalLane="54i_0" arrivalPos="10.00" arrivalSpeed="11.73" duration="92.00" routeLength="1015.10" waitSteps="0" timeLoss="15.26" rerouteNo="0" devices="tripinfo_up_54" vType="typeNS" vaporized=""/>
    <tripinfo id="left_20" depart="41.00" departLane="52o_0" departPos="5.10" departSpeed="0.00" departDelay="0.00" arrival="245.00" arrivalLane="51i_0" arrivalPos="10.00" arrivalSpeed="11.45" duration="204.00" routeLength="1015.10" waitSteps="91" timeLoss="127.73" rerouteNo="0" devices="tripinfo_left_20" vType="typeWE" vaporized=""/>
    <tripinfo id="right_14" depart="32.00" departLane="51o_0" departPos="5.10" departSpeed="0.00" departDelay="1.00" arrival="245.00" arrivalLane="52i_0" arrivalPos="10.00" arrivalSpeed="11.64" duration="213.00" routeLength="1015.10" waitSteps="97" timeLoss="137.16" rerouteNo="0" devices="tripinfo_right_14" vType="typeWE" vaporized=""/>
    <tripinfo id="down_58" depart="149.00" departLane="54o_0" departPos="5.10" departSpeed="0.00" departDelay="0.00" arrival="253.00" arrivalLane="53i_0" arrivalPos="10.00" arrivalSpeed="11.39" duration="104.00" routeLength="1015.10" waitSteps="1" timeLoss="27.71" rerouteNo="0" devices="tripinfo_down_58" vType="typeNS" vaporized=""/>
    <tripinfo id="up_56" depart="145.00" departLane="53o_0" departPos="5.10" departSpeed="0.00" departDelay="0.00" arrival="253.00" arrivalLane="54i_0" arrivalPos="10.00" arrivalSpeed="11.51" duration="108.00" routeLength="1015.10" waitSteps="7" timeLoss="31.50" rerouteNo="0" devices="tripinfo_up_56" vType="typeNS" vaporized=""/>
    <tripinfo id="up_62" depart="163.00" departLane="53o_0" departPos="5.10" departSpeed="0.00" departDelay="1.00" arrival="255.00" arrivalLane="54i_0" arrivalPos="10.00" arrivalSpeed="9.32" duration="92.00" routeLength="1015.10" waitSteps="0" timeLoss="15.84" rerouteNo="0" devices="tripinfo_up_62" vType="typeNS" vaporized=""/>
    <tripinfo id="down_64" depart="164.00" departLane="54o_0" departPos="5.10" departSpeed="0.00" departDelay="0.00" arrival="256.00" arrivalLane="53i_0" arrivalPos="10.00" arrivalSpeed="11.61" duration="92.00" routeLength="1015.10" waitSteps="0" timeLoss="15.82" rerouteNo="0" devices="tripinfo_down_64" vType="typeNS" vaporized=""/>
    <tripinfo id="up_65" depart="170.00" departLane="53o_0" departPos="5.10" departSpeed="0.00" departDelay="0.00" arrival="262.00" arrivalLane="54i_0" arrivalPos="10.00" arrivalSpeed="11.41" duration="92.00" routeLength="1015.10" waitSteps="0" timeLoss="15.46" rerouteNo="0" devices="tripinfo_up_65" vType="typeNS" vaporized=""/>
    <tripinfo id="up_67" depart="177.00" departLane="53o_0" departPos="5.10" departSpeed="0.00" departDelay="2.00" arrival="268.00" arrivalLane="54i_0" arrivalPos="10.00" arrivalSpeed="11.62" duration="91.00" routeLength="1015.10" waitSteps="0" timeLoss="14.78" rerouteNo="0" devices="tripinfo_up_67" vType="typeNS" vaporized=""/>
    <tripinfo id="up_68" depart="182.00" departLane="53o_0" departPos="5.10" departSpeed="0.00" departDelay="4.00" arrival="274.00" arrivalLane="54i_0" arrivalPos="10.00" arrivalSpeed="11.39" duration="92.00" routeLength="1015.10" waitSteps="0" timeLoss="15.76" rerouteNo="0" devices="tripinfo_up_68" vType="typeNS" vaporized=""/>
    <tripinfo id="right_18" depart="37.00" departLane="51o_0" departPos="5.10" departSpeed="0.00" departDelay="3.00" arrival="290.00" arrivalLane="52i_0" arrivalPos="10.00" arrivalSpeed="11.38" duration="253.00" routeLength="1015.10" waitSteps="128" timeLoss="177.09" rerouteNo="0" devices="tripinfo_right_18" vType="typeWE" vaporized=""/>
    <tripinfo id="left_23" depart="49.00" departLane="52o_0" departPos="5.10" departSpeed="0.00" departDelay="0.00" arrival="291.00" arrivalLane="51i_0" arrivalPos="10.00" arrivalSpeed="11.64" duration="242.00" routeLength="1015.10" waitSteps="120" timeLoss="165.50" rerouteNo="0" devices="tripinfo_left_23" vType="typeWE" vaporized=""/>
    <tripinfo id="right_19" depart="42.00" departLane="51o_0" departPos="5.10" departSpeed="0.00" departDelay="2.00" arrival="292.00" arrivalLane="52i_0" arrivalPos="10.00" arrivalSpeed="11.46" duration="250.00" routeLength="1015.10" waitSteps="128" timeLoss="174.03" rerouteNo="0" devices="tripinfo_right_19" vType="typeWE" vaporized=""/>
    <tripinfo id="left_29" depart="67.00" departLane="52o_0" departPos="5.10" departSpeed="0.00" departDelay="0.00" arrival="293.00" arrivalLane="51i_0" arrivalPos="10.00" arrivalSpeed="8.95" duration="226.00" routeLength="1015.10" waitSteps="111" timeLoss="149.95" rerouteNo="0" devices="tripinfo_left_29" vType="typeWE" vaporized=""/>
    <tripinfo id="right_21" depart="47.00" departLane="51o_0" departPos="5.10" departSpeed="0.00" departDelay="3.00" arrival="294.00" arrivalLane="52i_0" arrivalPos="10.00" arrivalSpeed="10.80" duration="247.00" routeLength="1015.10" waitSteps="120" timeLoss="170.84" rerouteNo="0" devices="tripinfo_right_21" vType="typeWE" vaporized=""/>
    <tripinfo id="left_32" depart="74.00" departLane="52o_0" departPos="5.10" departSpeed="0.00" departDelay="0.00" arrival="295.00" arrivalLane="51i_0" arrivalPos="10.00" arrivalSpeed="10.26" duration="221.00" routeLength="1015.10" waitSteps="103" timeLoss="144.84" rerouteNo="0" devices="tripinfo_left_32" vType="typeWE" vaporized=""/>
    <tripinfo id="right_25" depart="56.00" departLane="51o_0" departPos="5.10" departSpeed="0.00" departDelay="0.00" arrival="296.00" arrivalLane="52i_0" arrivalPos="10.00" arrivalSpeed="11.41" duration="240.00" routeLength="1015.10" waitSteps="115" timeLoss="163.91" rerouteNo="0" devices="tripinfo_right_25" vType="typeWE" vaporized=""/>
    <tripinfo id="left_45" depart="117.00" departLane="52o_0" departPos="5.10" departSpeed="0.00" departDelay="0.00" arrival="297.00" arrivalLane="51i_0" arrivalPos="10.00" arrivalSpeed="9.76" duration="180.00" routeLength="1015.10" waitSteps="68" timeLoss="103.79" rerouteNo="0" devices="tripinfo_left_45" vType="typeWE" vaporized=""/>
    <tripinfo id="down_75" depart="206.00" departLane="54o_0" departPos="5.10" departSpeed="0.00" departDelay="0.00" arrival="309.00" arrivalLane="53i_0" arrivalPos="10.00" arrivalSpeed="11.42" duration="103.00" routeLength="1015.10" waitSteps="1" timeLoss="27.22" rerouteNo="0" devices="tripinfo_down_75" vType="typeNS" vaporized=""/>
    <tripinfo id="up_73" depart="193.00" departLane="53o_0" departPos="5.10" departSpeed="0.00" departDelay="0.00" arrival="310.00" arrivalLane="54i_0" arrivalPos="10.00" arrivalSpeed="11.50" duration="117.00" routeLength="1015.10" waitSteps="14" timeLoss="40.83" rerouteNo="0" devices="tripinfo_up_73" vType="typeNS" vaporized=""/>
    <tripinfo id="down_78" depart="214.00" departLane="54o_0" departPos="5.10" departSpeed="0.00" departDelay="0.00" arrival="311.00" arrivalLane="53i_0" arrivalPos="10.00" arrivalSpeed="11.22" duration="97.00" routeLength="1015.10" waitSteps="0" timeLoss="21.15" rerouteNo="0" devices="tripinfo_down_78" vType="typeNS" vaporized=""/>
    <tripinfo id="up_76" depart="212.00" departLane="53o_0" departPos="5.10" departSpeed="0.00" departDelay="0.00" arrival="312.00" arrivalLane="54i_0" arrivalPos="10.00" arrivalSpeed="10.78" duration="100.00" routeLength="1015.10" waitSteps="0" timeLoss="24.03" rerouteNo="0" devices="tripinfo_up_76" vType="typeNS" vaporized=""/>
    <tripinfo id="down_81" depart="220.00" departLane="54o_0" departPos="5.10" departSpeed="0.00" departDelay="0.00" arrival="313.00" arrivalLane="53i_0" arrivalPos="10.00" arrivalSpeed="11.10" duration="93.00" routeLength="1015.10" waitSteps="0" timeLoss="17.00" rerouteNo="0" devices="tripinfo_down_81" vType="typeNS" vaporized=""/>
    <tripinfo id="down_85" depart="241.00" departLane="54o_0" departPos="5.10" departSpeed="0.00" departDelay="0.00" arrival="333.00" arrivalLane="53i_0" arrivalPos="10.00" arrivalSpeed="11.54" duration="92.00" routeLength="1015.10" waitSteps="0" timeLoss="15.24" rerouteNo="0" devices="tripinfo_down_85" vType="typeNS" vaporized=""/>
    <tripinfo id="up_86" depart="242.00" departLane="53o_0" departPos="5.10" departSpeed="0.00" departDelay="0.00" arrival="335.00" arrivalLane="54i_0" arrivalPos="10.00" arrivalSpeed="11.67" duration="93.00" routeLength="1015.10" waitSteps="0" timeLoss="16.45" rerouteNo="0" devices="tripinfo_up_86" vType="typeNS" vaporized=""/>
    <tripinfo id="left_46" depart="122.00" departLane="52o_0" departPos="5.10" departSpeed="0.00" departDelay="2.00" arrival="346.00" arrivalLane="51i_0" arrivalPos="10.00" arrivalSpeed="11.68" duration="224.00" routeLength="1015.10" waitSteps="103" timeLoss="147.78" rerouteNo="0" devices="tripinfo_left_46" vType="typeWE" vaporized=""/>
    <tripinfo id="right_27" depart="63.00" departLane="51o_0" departPos="5.10" departSpeed="0.00" departDelay="0.00" arrival="347.00" arrivalLane="52i_0" arrivalPos="10.00" arrivalSpeed="11.56" duration="284.00" routeLength="1015.10" waitSteps="152" timeLoss="207.76" rerouteNo="0" devices="tripinfo_right_27" vType="typeWE" vaporized=""/>
    <tripinfo id="up_88" depart="247.00" departLane="53o_0" departPos="5.10" departSpeed="0.00" departDelay="0.00" arrival="359.00" arrivalLane="54i_0" arrivalPos="10.00" arrivalSpeed="11.66" duration="112.00" routeLength="1015.10" waitSteps="9" timeLoss="35.46" rerouteNo="0" devices="tripinfo_up_88" vType="typeNS" vaporized=""/>
    <tripinfo id="down_92" depart="255.00" departLane="54o_0" departPos="5.10" departSpeed="0.00" departDelay="1.00" arrival="359.00" arrivalLane="53i_0" arrivalPos="10.00" arrivalSpeed="11.52" duration="104.00" routeLength="1015.10" waitSteps="1" timeLoss="27.36" rerouteNo="0" devices="tripinfo_down_92" vType="typeNS" vaporized=""/>
    <tripinfo id="up_89" depart="253.00" departLane="53o_0" departPos="5.10" departSpeed="0.00" departDelay="5.00" arrival="361.00" arrivalLane="54i_0" arrivalPos="10.00" arrivalSpeed="8.52" duration="108.00" routeLength="1015.10" waitSteps="4" timeLoss="32.02" rerouteNo="0" devices="tripinfo_up_89" vType="typeNS" vaporized=""/>
    <tripinfo id="down_93" depart="262.00" departLane="54o_0" departPos="5.10" departSpeed="0.00" departDelay="6.00" arrival="361.00" arrivalLane="53i_0" arrivalPos="10.00" arrivalSpeed="10.70" duration="99.00" routeLength="1015.10" waitSteps="0" timeLoss="22.98" rerouteNo="0" devices="tripinfo_down_93" vType="typeNS" vaporized=""/>
    <tripinfo id="up_96" depart="259.00" departLane="53o_0" departPos="5.10" departSpeed="0.00" departDelay="0.00" arrival="363.00" arrivalLane="54i_0" arrivalPos="10.00" arrivalSpeed="9.74" duration="104.00" routeLength="1015.10" waitSteps="0" timeLoss="27.97" rerouteNo="0" devices="tripinfo_up_96" vType="typeNS" vaporized=""/>
    <tripinfo id="down_95" depart="268.00" departLane="54o_0" departPos="5.10" departSpeed="0.00" departDelay="10.00" arrival="363.00" arrivalLane="53i_0" arrivalPos="10.00" arrivalSpeed="10.58" duration="95.00" routeLength="1015.10" waitSteps="0" timeLoss="18.91" rerouteNo="0" devices="tripinfo_down_95" vType="typeNS" vaporized=""/>
    <tripinfo id="up_98" depart="264.00" departLane="53o_0" departPos="5.10" departSpeed="0.00" departDelay="1.00" arrival="365.00" arrivalLane="54i_0" arrivalPos="10.00" arrivalSpeed="10.09" duration="101.00" routeLength="1015.10" waitSteps="0" timeLoss="24.83" rerouteNo="0" devices="tripinfo_up_98" vType="typeNS" vaporized=""/>
    <tripinfo id="down_100" depart="274.00" departLane="54o_0" departPos="5.10" departSpeed="0.00" departDelay="9.00" arrival="366.00" arrivalLane="53i_0" arrivalPos="10.00" arrivalSpeed="11.61" duration="92.00" routeLength="1015.10" waitSteps="0" timeLoss="15.84" rerouteNo="0" devices="tripinfo_down_100" vType="typeNS" vaporized=""/>
    <tripinfo id="up_104" depart="272.00" departLane="53o_0" departPos="5.10" departSpeed="0.00" departDelay="0.00" arrival="367.00" arrivalLane="54i_0" arrivalPos="10.00" arrivalSpeed="9.11" duration="95.00" routeLength="1015.10" waitSteps="0" timeLoss="19.06" rerouteNo="0" devices="tripinfo_up_104" vType="typeNS" vaporized=""/>
    <tripinfo id="down_106" depart="279.00" departLane="54o_0" departPos="5.10" departSpeed="0.00" departDelay="6.00" arrival="371.00" arrivalLane="53i_0" arrivalPos="10.00" arrivalSpeed="11.51" duration="92.00" routeLength="1015.10" waitSteps="0" timeLoss="15.78" rerouteNo="0" devices="tripinfo_down_106" vType="typeNS" vaporized=""/>
    <tripinfo id="up_109" depart="284.00" departLane="53o_0" departPos="5.10" departSpeed="0.00" departDelay="0.00" arrival="375.00" arrivalLane="54i_0" arrivalPos="10.00" arrivalSpeed="11.43" duration="91.00" routeLength="1015.10" waitSteps="0" timeLoss="14.97" rerouteNo="0" devices="tripinfo_up_109" vType="typeNS" vaporized=""/>
    <tripinfo id="right_28" depart="68.00" departLane="51o_0" departPos="5.10" departSpeed="0.00" departDelay="4.00" arrival="395.00" arrivalLane="52i_0" arrivalPos="10.00" arrivalSpeed="11.47" duration="327.00" routeLength="1015.10" waitSteps="194" timeLoss="250.60" rerouteNo="0" devices="tripinfo_right_28" vType="typeWE" vaporized=""/>
    <tripinfo id="left_47" depart="127.00" departLane="52o_0" departPos="5.10" departSpeed="0.00" departDelay="4.00" arrival="395.00" arrivalLane="51i_0" arrivalPos="10.00" arrivalSpeed="11.21" duration="268.00" routeLength="1015.10" waitSteps="142" timeLoss="191.77" rerouteNo="0" devices="tripinfo_left_47" vType="typeWE" vaporized=""/>
    <tripinfo id="right_34" depart="81.00" departLane="51o_0" departPos="5.10" departSpeed="0.00" departDelay="0.00" arrival="398.00" arrivalLane="52i_0" arrivalPos="10.00" arrivalSpeed="10.82" duration="317.00" routeLength="1015.10" waitSteps="181" timeLoss="240.87" rerouteNo="0" devices="tripinfo_right_34" vType="typeWE" vaporized=""/>
    <tripinfo id="left_48" depart="132.00" departLane="52o_0" departPos="5.10" departSpeed="0.00" departDelay="7.00" arrival="398.00" arrivalLane="51i_0" arrivalPos="10.00" arrivalSpeed="11.47" duration="266.00" routeLength="1015.10" waitSteps="137" timeLoss="189.69" rerouteNo="0" devices="tripinfo_left_48" vType="typeWE" vaporized=""/>
    <tripinfo id="right_36" depart="92.00" departLane="51o_0" departPos="5.10" departSpeed="0.00" departDelay="0.00" arrival="400.00" arrivalLane="52i_0" arrivalPos="10.00" arrivalSpeed="11.42" duration="308.00" routeLength="1015.10" waitSteps="170" timeLoss="231.93" rerouteNo="0" devices="tripinfo_right_36" vType="typeWE" vaporized=""/>
    <tripinfo id="left_51" depart="137.00" departLane="52o_0" departPos="5.10" departSpeed="0.00" departDelay="8.00" arrival="400.00" arrivalLane="51i_0" arrivalPos="10.00" arrivalSpeed="10.29" duration="263.00" routeLength="1015.10" waitSteps="132" timeLoss="186.81" rerouteNo="0" devices="tripinfo_left_51" vType="typeWE" vaporized=""/>
    <tripinfo id="right_44" depart="115.00" departLane="51o_0" departPos="5.10" departSpeed="0.00" departDelay="0.00" arrival="402.00" arrivalLane="52i_0" arrivalPos="10.00" arrivalSpeed="10.87" duration="287.00" routeLength="1015.10" waitSteps="150" timeLoss="210.95" rerouteNo="0" devices="tripinfo_right_44" vType="typeWE" vaporized=""/>
    <tripinfo id="left_55" depart="142.00" departLane="52o_0" departPos="5.10" departSpeed="0.00" departDelay="5.00" arrival="402.00" arrivalLane="51i_0" arrivalPos="10.00" arrivalSpeed="9.76" duration="260.00" routeLength="1015.10" waitSteps="128" timeLoss="183.90" rerouteNo="0" devices="tripinfo_left_55" vType="typeWE" vaporized=""/>
    <tripinfo id="down_114" depart="293.00" departLane="54o_0" departPos="5.10" departSpeed="0.00" departDelay="0.00" arrival="415.00" arrivalLane="53i_0" arrivalPos="10.00" arrivalSpeed="11.32" duration="122.00" routeLength="1015.10" waitSteps="19" timeLoss="45.79" rerouteNo="0" devices="tripinfo_down_114" vType="typeNS" vaporized=""/>
    <tripinfo id="up_119" depart="299.00" departLane="53o_0" departPos="5.10" departSpeed="0.00" departDelay="0.00" arrival="416.00" arrivalLane="54i_0" arrivalPos="10.00" arrivalSpeed="11.71" duration="117.00" routeLength="1015.10" waitSteps="15" timeLoss="40.76" rerouteNo="0" devices="tripinfo_up_119" vType="typeNS" vaporized=""/>
    <tripinfo id="down_115" depart="298.00" departLane="54o_0" departPos="5.10" departSpeed="0.00" departDelay="3.00" arrival="418.00" arrivalLane="53i_0" arrivalPos="10.00" arrivalSpeed="11.52" duration="120.00" routeLength="1015.10" waitSteps="18" timeLoss="43.77" rerouteNo="0" devices="tripinfo_down_115" vType="typeNS" vaporized=""/>
    <tripinfo id="down_123" depart="312.00" departLane="54o_0" departPos="5.10" departSpeed="0.00" departDelay="1.00" arrival="420.00" arrivalLane="53i_0" arrivalPos="10.00" arrivalSpeed="11.21" duration="108.00" routeLength="1015.10" waitSteps="4" timeLoss="31.90" rerouteNo="0" devices="tripinfo_down_123" vType="typeNS" vaporized=""/>
    <tripinfo id="down_128" depart="330.00" departLane="54o_0" departPos="5.10" departSpeed="0.00" departDelay="0.00" arrival="422.00" arrivalLane="53i_0" arrivalPos="10.00" arrivalSpeed="10.74" duration="92.00" routeLength="1015.10" waitSteps="0" timeLoss="15.96" rerouteNo="0" devices="tripinfo_down_128" vType="typeNS" vaporized=""/>
    <tripinfo id="down_130" depart="343.00" departLane="54o_0" departPos="5.10" departSpeed="0.00" departDelay="0.00" arrival="434.00" arrivalLane="53i_0" arrivalPos="10.00" arrivalSpeed="11.33" duration="91.00" routeLength="1015.10" waitSteps="0" timeLoss="14.77" rerouteNo="0" devices="tripinfo_down_130" vType="typeNS" vaporized=""/>
    <tripinfo id="up_131" depart="344.00" departLane="53o_0" departPos="5.10" departSpeed="0.00" departDelay="0.00" arrival="435.00" arrivalLane="54i_0" arrivalPos="10.00" arrivalSpeed="11.51" duration="91.00" routeLength="1015.10" waitSteps="0" timeLoss="14.33" rerouteNo="0" devices="tripinfo_up_131" vType="typeNS" vaporized=""/>
    <tripinfo id="right_49" depart="126.00" departLane="51o_0" departPos="5.10" departSpeed="0.00" departDelay="0.00" arrival="452.00" arrivalLane="52i_0" arrivalPos="10.00" arrivalSpeed="11.32" duration="326.00" routeLength="1015.10" waitSteps="186" timeLoss="249.64" rerouteNo="0" devices="tripinfo_right_49" vType="typeWE" vaporized=""/>