<?xml version="1.0" encoding="UTF-8"?>

<!-- generated on Thu 01 Dec 2016 10:46:23 PM EST by SUMO gui Version 0.25.0
<?xml version="1.0" encoding="UTF-8"?>

<configuration xmlns:xsi="http://www.w3.org/2001/XMLSchema-instance" xsi:noNamespaceSchemaLocation="http://sumo.dlr.de/xsd/sumo-gui.exeConfiguration.xsd">

    <input>
        <net-file value="data/cross.net.xml"/>
        <route-files value="data/cross.rou.xml"/>
        <additional-files value="data/cross.det.xml"/>
    </input>

    <output>
        <tripinfo-output value="tripinfo.xml"/>
        <save-state.prefix value="data/state"/>
    </output>

    <time>
        <begin value="0"/>
    </time>

    <report>
        <verbose value="true"/>
        <no-step-log value="true"/>
    </report>

    <emissions>
        <phemlight-path value="data/./PHEMlight/"/>
    </emissions>

    <traci_server>
        <remote-port value="8873"/>
    </traci_server>

</configuration>
-->

<tripinfos xmlns:xsi="http://www.w3.org/2001/XMLSchema-instance" xsi:noNamespaceSchemaLocation="http://sumo.dlr.de/xsd/tripinfo_file.xsd">
    <tripinfo id="left_0" depart="0.00" departLane="52o_0" departPos="5.10" departSpeed="0.00" departDelay="0.00" arrival="90.00" arrivalLane="51i_0" arrivalPos="10.00" arrivalSpeed="11.32" duration="90.00" routeLength="1015.10" waitSteps="0" timeLoss="14.09" rerouteNo="0" devices="tripinfo_left_0" vType="typeWE" vaporized=""/>
    <tripinfo id="left_2" depart="5.00" departLane="52o_0" departPos="5.10" departSpeed="0.00" departDelay="3.00" arrival="96.00" arrivalLane="51i_0" arrivalPos="10.00" arrivalSpeed="11.69" duration="91.00" routeLength="1015.10" waitSteps="0" timeLoss="15.04" rerouteNo="0" devices="tripinfo_left_2" vType="typeWE" vaporized=""/>
    <tripinfo id="right_3" depart="3.00" departLane="51o_0" departPos="5.10" departSpeed="0.00" departDelay="0.00" arrival="96.00" arrivalLane="52i_0" arrivalPos="10.00" arrivalSpeed="11.48" duration="93.00" routeLength="1015.10" waitSteps="0" timeLoss="16.22" rerouteNo="0" devices="tripinfo_right_3" vType="typeWE" vaporized=""/>
    <tripinfo id="left_7" depart="10.00" departLane="52o_0" departPos="5.10" departSpeed="0.00" departDelay="0.00" arrival="101.00" arrivalLane="51i_0" arrivalPos="10.00" arrivalSpeed="10.93" duration="91.00" routeLength="1015.10" waitSteps="0" timeLoss="14.87" rerouteNo="0" devices="tripinfo_left_7" vType="typeWE" vaporized=""/>
    <tripinfo id="right_8" depart="11.00" departLane="51o_0" departPos="5.10" departSpeed="0.00" departDelay="0.00" arrival="103.00" arrivalLane="52i_0" arrivalPos="10.00" arrivalSpeed="11.53" duration="92.00" routeLength="1015.10" waitSteps="0" timeLoss="15.22" rerouteNo="0" devices="tripinfo_right_8" vType="typeWE" vaporized=""/>
    <tripinfo id="up_1" depart="1.00" departLane="53o_0" departPos="5.10" departSpeed="0.00" departDelay="0.00" arrival="117.00" arrivalLane="54i_0" arrivalPos="10.00" arrivalSpeed="10.91" duration="116.00" routeLength="1015.10" waitSteps="13" timeLoss="40.01" rerouteNo="0" devices="tripinfo_up_1" vType="typeNS" vaporized=""/>
    <tripinfo id="down_5" depart="6.00" departLane="54o_0" departPos="5.10" departSpeed="0.00" departDelay="0.00" arrival="118.00" arrivalLane="53i_0" arrivalPos="10.00" arrivalSpeed="11.57" duration="112.00" routeLength="1015.10" waitSteps="10" timeLoss="35.46" rerouteNo="0" devices="tripinfo_down_5" vType="typeNS" vaporized=""/>
    <tripinfo id="right_10" depart="22.00" departLane="51o_0" departPos="5.10" departSpeed="0.00" departDelay="0.00" arrival="119.00" arrivalLane="52i_0" arrivalPos="10.00" arrivalSpeed="11.36" duration="97.00" routeLength="1015.10" waitSteps="0" timeLoss="20.62" rerouteNo="0" devices="tripinfo_right_10" vType="typeWE" vaporized=""/>
    <tripinfo id="left_11" depart="22.00" departLane="52o_0" departPos="5.10" departSpeed="0.00" departDelay="0.00" arrival="123.00" arrivalLane="51i_0" arrivalPos="10.00" arrivalSpeed="11.42" duration="101.00" routeLength="1015.10" waitSteps="0" timeLoss="24.83" rerouteNo="0" devices="tripinfo_left_11" vType="typeWE" vaporized=""/>
    <tripinfo id="up_4" depart="6.00" departLane="53o_0" departPos="5.10" departSpeed="0.00" departDelay="2.00" arrival="130.00" arrivalLane="54i_0" arrivalPos="10.00" arrivalSpeed="11.64" duration="124.00" routeLength="1015.10" waitSteps="18" timeLoss="48.07" rerouteNo="0" devices="tripinfo_up_4" vType="typeNS" vaporized=""/>
    <tripinfo id="down_12" depart="23.00" departLane="54o_0" departPos="5.10" departSpeed="0.00" departDelay="0.00" arrival="130.00" arrivalLane="53i_0" arrivalPos="10.00" arrivalSpeed="11.49" duration="107.00" routeLength="1015.10" waitSteps="5" timeLoss="30.73" rerouteNo="0" devices="tripinfo_down_12" vType="typeNS" vaporized=""/>
    <tripinfo id="left_20" depart="41.00" departLane="52o_0" departPos="5.10" departSpeed="0.00" departDelay="0.00" arrival="132.00" arrivalLane="51i_0" arrivalPos="10.00" arrivalSpeed="11.69" duration="91.00" routeLength="1015.10" waitSteps="0" timeLoss="15.12" rerouteNo="0" devices="tripinfo_left_20" vType="typeWE" vaporized=""/>
    <tripinfo id="right_13" depart="27.00" departLane="51o_0" departPos="5.10" departSpeed="0.00" departDelay="2.00" arrival="137.00" arrivalLane="52i_0" arrivalPos="10.00" arrivalSpeed="11.61" duration="110.00" routeLength="1015.10" waitSteps="5" timeLoss="34.09" rerouteNo="0" devices="tripinfo_right_13" vType="typeWE" vaporized=""/>
    <tripinfo id="left_23" depart="49.00" departLane="52o_0" departPos="5.10" departSpeed="0.00" departDelay="0.00" arrival="140.00" arrivalLane="51i_0" arrivalPos="10.00" arrivalSpeed="11.48" duration="91.00" routeLength="1015.10" waitSteps="0" timeLoss="14.98" rerouteNo="0" devices="tripinfo_left_23" vType="typeWE" vaporized=""/>
    <tripinfo id="right_14" depart="32.00" departLane="51o_0" departPos="5.10" departSpeed="0.00" departDelay="1.00" arrival="141.00" arrivalLane="52i_0" arrivalPos="10.00" arrivalSpeed="11.49" duration="109.00" routeLength="1015.10" waitSteps="1" timeLoss="32.77" rerouteNo="0" devices="tripinfo_right_14" vType="typeWE" vaporized=""/>
    <tripinfo id="right_18" depart="37.00" departLane="51o_0" departPos="5.10" departSpeed="0.00" departDelay="3.00" arrival="143.00" arrivalLane="52i_0" arrivalPos="10.00" arrivalSpeed="11.66" duration="106.00" routeLength="1015.10" waitSteps="0" timeLoss="30.19" rerouteNo="0" devices="tripinfo_right_18" vType="typeWE" vaporized=""/>
    <tripinfo id="right_19" depart="42.00" departLane="51o_0" departPos="5.10" departSpeed="0.00" departDelay="2.00" arrival="146.00" arrivalLane="52i_0" arrivalPos="10.00" arrivalSpeed="11.84" duration="104.00" routeLength="1015.10" waitSteps="0" timeLoss="27.54" rerouteNo="0" devices="tripinfo_right_19" vType="typeWE" vaporized=""/>
    <tripinfo id="up_6" depart="11.00" departLane="53o_0" departPos="5.10" departSpeed="0.00" departDelay="5.00" arrival="158.00" arrivalLane="54i_0" arrivalPos="10.00" arrivalSpeed="11.57" duration="147.00" routeLength="1015.10" waitSteps="32" timeLoss="70.79" rerouteNo="0" devices="tripinfo_up_6" vType="typeNS" vaporized=""/>
    <tripinfo id="down_15" depart="31.00" departLane="54o_0" departPos="5.10" departSpeed="0.00" departDelay="0.00" arrival="158.00" arrivalLane="53i_0" arrivalPos="10.00" arrivalSpeed="11.60" duration="127.00" routeLength="1015.10" waitSteps="21" timeLoss="50.40" rerouteNo="0" devices="tripinfo_down_15" vType="typeNS" vaporized=""/>
    <tripinfo id="left_29" depart="67.00" departLane="52o_0" departPos="5.10" departSpeed="0.00" departDelay="0.00" arrival="159.00" arrivalLane="51i_0" arrivalPos="10.00" arrivalSpeed="11.71" duration="92.00" routeLength="1015.10" waitSteps="0" timeLoss="15.30" rerouteNo="0" devices="tripinfo_left_29" vType="typeWE" vaporized=""/>
    <tripinfo id="right_21" depart="47.00" departLane="51o_0" departPos="5.10" departSpeed="0.00" departDelay="3.00" arrival="164.00" arrivalLane="52i_0" arrivalPos="10.00" arrivalSpeed="11.42" duration="117.00" routeLength="1015.10" waitSteps="10" timeLoss="41.25" rerouteNo="0" devices="tripinfo_right_21" vType="typeWE" vaporized=""/>
    <tripinfo id="up_9" depart="16.00" departLane="53o_0" departPos="5.10" departSpeed="0.00" departDelay="0.00" arrival="176.00" arrivalLane="54i_0" arrivalPos="10.00" arrivalSpeed="11.68" duration="160.00" routeLength="1015.10" waitSteps="40" timeLoss="84.17" rerouteNo="0" devices="tripinfo_up_9" vType="typeNS" vaporized=""/>
    <tripinfo id="down_17" depart="36.00" departLane="54o_0" departPos="5.10" departSpeed="0.00" departDelay="3.00" arrival="177.00" arrivalLane="53i_0" arrivalPos="10.00" arrivalSpeed="11.67" duration="141.00" routeLength="1015.10" waitSteps="33" timeLoss="64.49" rerouteNo="0" devices="tripinfo_down_17" vType="typeNS" vaporized=""/>
    <tripinfo id="up_16" depart="32.00" departLane="53o_0" departPos="5.10" departSpeed="0.00" departDelay="0.00" arrival="178.00" arrivalLane="54i_0" arrivalPos="10.00" arrivalSpeed="11.51" duration="146.00" routeLength="1015.10" waitSteps="32" timeLoss="70.01" rerouteNo="0" devices="tripinfo_up_16" vType="typeNS" vaporized=""/>
    <tripinfo id="down_26" depart="57.00" departLane="54o_0" departPos="5.10" departSpeed="0.00" departDelay="0.00" arrival="179.00" arrivalLane="53i_0" arrivalPos="10.00" arrivalSpeed="7.71" duration="122.00" routeLength="1015.10" waitSteps="12" timeLoss="46.06" rerouteNo="0" devices="tripinfo_down_26" vType="typeNS" vaporized=""/>
    <tripinfo id="left_32" depart="74.00" departLane="52o_0" departPos="5.10" departSpeed="0.00" departDelay="0.00" arrival="185.00" arrivalLane="51i_0" arrivalPos="10.00" arrivalSpeed="11.35" duration="111.00" routeLength="1015.10" waitSteps="9" timeLoss="34.88" rerouteNo="0" devices="tripinfo_left_32" vType="typeWE" vaporized=""/>
    <tripinfo id="right_25" depart="56.00" departLane="51o_0" departPos="5.10" departSpeed="0.00" departDelay="0.00" arrival="185.00" arrivalLane="52i_0" arrivalPos="10.00" arrivalSpeed="11.69" duration="129.00" routeLength="1015.10" waitSteps="19" timeLoss="53.12" rerouteNo="0" devices="tripinfo_right_25" vType="typeWE" vaporized=""/>
    <tripinfo id="right_27" depart="63.00" departLane="51o_0" departPos="5.10" departSpeed="0.00" departDelay="0.00" arrival="188.00" arrivalLane="52i_0" arrivalPos="10.00" arrivalSpeed="11.25" duration="125.00" routeLength="1015.10" waitSteps="12" timeLoss="49.17" rerouteNo="0" devices="tripinfo_right_27" vType="typeWE" vaporized=""/>
    <tripinfo id="right_28" depart="68.00" departLane="51o_0" departPos="5.10" departSpeed="0.00" departDelay="4.00" arrival="192.00" arrivalLane="52i_0" arrivalPos="10.00" arrivalSpeed="11.46" duration="124.00" routeLength="1015.10" waitSteps="10" timeLoss="48.12" rerouteNo="0" devices="tripinfo_right_28" vType="typeWE" vaporized=""/>
    <tripinfo id="up_22" depart="45.00" departLane="53o_0" departPos="5.10" departSpeed="0.00" departDelay="0.00" arrival="203.00" arrivalLane="54i_0" arrivalPos="10.00" arrivalSpeed="11.84" duration="158.00" routeLength="1015.10" waitSteps="42" timeLoss="81.43" rerouteNo="0" devices="tripinfo_up_22" vType="typeNS" vaporized=""/>
    <tripinfo id="down_31" depart="72.00" departLane="54o_0" departPos="5.10" departSpeed="0.00" departDelay="0.00" arrival="203.00" arrivalLane="53i_0" arrivalPos="10.00" arrivalSpeed="11.48" duration="131.00" routeLength="1015.10" waitSteps="21" timeLoss="54.41" rerouteNo="0" devices="tripinfo_down_31" vType="typeNS" vaporized=""/>
    <tripinfo id="down_33" depart="77.00" departLane="54o_0" departPos="5.10" departSpeed="0.00" departDelay="3.00" arrival="205.00" arrivalLane="53i_0" arrivalPos="10.00" arrivalSpeed="10.66" duration="128.00" routeLength="1015.10" waitSteps="17" timeLoss="51.92" rerouteNo="0" devices="tripinfo_down_33" vType="typeNS" vaporized=""/>
    <tripinfo id="up_24" depart="51.00" departLane="53o_0" departPos="5.10" departSpeed="0.00" departDelay="0.00" arrival="206.00" arrivalLane="54i_0" arrivalPos="10.00" arrivalSpeed="11.47" duration="155.00" routeLength="1015.10" waitSteps="34" timeLoss="78.52" rerouteNo="0" devices="tripinfo_up_24" vType="typeNS" vaporized=""/>
    <tripinfo id="down_35" depart="85.00" departLane="54o_0" departPos="5.10" departSpeed="0.00" departDelay="0.00" arrival="207.00" arrivalLane="53i_0" arrivalPos="10.00" arrivalSpeed="10.39" duration="122.00" routeLength="1015.10" waitSteps="14" timeLoss="45.91" rerouteNo="0" devices="tripinfo_down_35" vType="typeNS" vaporized=""/>
    <tripinfo id="up_30" depart="71.00" departLane="53o_0" departPos="5.10" departSpeed="0.00" departDelay="0.00" arrival="208.00" arrivalLane="54i_0" arrivalPos="10.00" arrivalSpeed="8.75" duration="137.00" routeLength="1015.10" waitSteps="23" timeLoss="61.00" rerouteNo="0" devices="tripinfo_up_30" vType="typeNS" vaporized=""/>
    <tripinfo id="down_38" depart="98.00" departLane="54o_0" departPos="5.10" departSpeed="0.00" departDelay="0.00" arrival="209.00" arrivalLane="53i_0" arrivalPos="10.00" arrivalSpeed="10.71" duration="111.00" routeLength="1015.10" waitSteps="5" timeLoss="34.99" rerouteNo="0" devices="tripinfo_down_38" vType="typeNS" vaporized=""/>
    <tripinfo id="up_37" depart="93.00" departLane="53o_0" departPos="5.10" departSpeed="0.00" departDelay="0.00" arrival="210.00" arrivalLane="54i_0" arrivalPos="10.00" arrivalSpeed="8.99" duration="117.00" routeLength="1015.10" waitSteps="11" timeLoss="41.00" rerouteNo="0" devices="tripinfo_up_37" vType="typeNS" vaporized=""/>
    <tripinfo id="left_45" depart="119.00" departLane="52o_0" departPos="5.10" departSpeed="0.00" departDelay="2.00" arrival="211.00" arrivalLane="51i_0" arrivalPos="10.00" arrivalSpeed="11.65" duration="92.00" routeLength="1015.10" waitSteps="0" timeLoss="15.91" rerouteNo="0" devices="tripinfo_left_45" vType="typeWE" vaporized=""/>
    <tripinfo id="left_46" depart="124.00" departLane="52o_0" departPos="5.10" departSpeed="0.00" departDelay="4.00" arrival="216.00" arrivalLane="51i_0" arrivalPos="10.00" arrivalSpeed="11.45" duration="92.00" routeLength="1015.10" waitSteps="0" timeLoss="15.71" rerouteNo="0" devices="tripinfo_left_46" vType="typeWE" vaporized=""/>
    <tripinfo id="left_47" depart="129.00" departLane="52o_0" departPos="5.10" departSpeed="0.00" departDelay="6.00" arrival="220.00" arrivalLane="51i_0" arrivalPos="10.00" arrivalSpeed="11.60" duration="91.00" routeLength="1015.10" waitSteps="0" timeLoss="14.83" rerouteNo="0" devices="tripinfo_left_47" vType="typeWE" vaporized=""/>
    <tripinfo id="right_34" depart="81.00" departLane="51o_0" departPos="5.10" departSpeed="0.00" departDelay="0.00" arrival="221.00" arrivalLane="52i_0" arrivalPos="10.00" arrivalSpeed="11.74" duration="140.00" routeLength="1015.10" waitSteps="25" timeLoss="63.82" rerouteNo="0" devices="tripinfo_right_34" vType="typeWE" vaporized=""/>
    <tripinfo id="left_48" depart="134.00" departLane="52o_0" departPos="5.10" departSpeed="0.00" departDelay="9.00" arrival="224.00" arrivalLane="51i_0" arrivalPos="10.00" arrivalSpeed="11.19" duration="90.00" routeLength="1015.10" waitSteps="0" timeLoss="14.03" rerouteNo="0" devices="tripinfo_left_48" vType="typeWE" vaporized=""/>
    <tripinfo id="right_36" depart="92.00" departLane="51o_0" departPos="5.10" departSpeed="0.00" departDelay="0.00" arrival="225.00" arrivalLane="52i_0" arrivalPos="10.00" arrivalSpeed="11.14" duration="133.00" routeLength="1015.10" waitSteps="18" timeLoss="57.10" rerouteNo="0" devices="tripinfo_right_36" vType="typeWE" vaporized=""/>
    <tripinfo id="right_44" depart="115.00" departLane="51o_0" departPos="5.10" departSpeed="0.00" departDelay="0.00" arrival="228.00" arrivalLane="52i_0" arrivalPos="10.00" arrivalSpeed="11.57" duration="113.00" routeLength="1015.10" waitSteps="2" timeLoss="36.66" rerouteNo="0" devices="tripinfo_right_44" vType="typeWE" vaporized=""/>
    <tripinfo id="left_51" depart="138.00" departLane="52o_0" departPos="5.10" departSpeed="0.00" departDelay="9.00" arrival="231.00" arrivalLane="51i_0" arrivalPos="10.00" arrivalSpeed="11.42" duration="93.00" routeLength="1015.10" waitSteps="1" timeLoss="16.99" rerouteNo="0" devices="tripinfo_left_51" vType="typeWE" vaporized=""/>
    <tripinfo id="right_49" depart="126.00" departLane="51o_0" departPos="5.10" departSpeed="0.00" departDelay="0.00" arrival="238.00" arrivalLane="52i_0" arrivalPos="10.00" arrivalSpeed="11.52" duration="112.00" routeLength="1015.10" waitSteps="1" timeLoss="36.12" rerouteNo="0" devices="tripinfo_right_49" vType="typeWE" vaporized=""/>
    <tripinfo id="up_40" depart="103.00" departLane="53o_0" departPos="5.10" departSpeed="0.00" departDelay="0.00" arrival="245.00" arrivalLane="54i_0" arrivalPos="10.00" arrivalSpeed="11.60" duration="142.00" routeLength="1015.10" waitSteps="30" timeLoss="65.92" rerouteNo="0" devices="tripinfo_up_40" vType="typeNS" vaporized=""/>
    <tripinfo id="down_39" depart="103.00" departLane="54o_0" departPos="5.10" departSpeed="0.00" departDelay="2.00" arrival="245.00" arrivalLane="53i_0" arrivalPos="10.00" arrivalSpeed="11.82" duration="142.00" routeLength="1015.10" waitSteps="29" timeLoss="65.97" rerouteNo="0" devices="tripinfo_down_39" vType="typeNS" vaporized=""/>
    <tripinfo id="left_55" depart="146.00" departLane="52o_0" departPos="5.10" departSpeed="0.00" departDelay="9.00" arrival="252.00" arrivalLane="51i_0" arrivalPos="10.00" arrivalSpeed="10.95" duration="106.00" routeLength="1015.10" waitSteps="4" timeLoss="30.02" rerouteNo="0" devices="tripinfo_left_55" vType="typeWE" vaporized=""/>
    <tripinfo id="right_50" depart="132.00" departLane="51o_0" departPos="5.10" departSpeed="0.00" departDelay="5.00" arrival="253.00" arrivalLane="52i_0" arrivalPos="10.00" arrivalSpeed="11.54" duration="121.00" routeLength="1015.10" waitSteps="8" timeLoss="44.64" rerouteNo="0" devices="tripinfo_right_50" vType="typeWE" vaporized=""/>
    <tripinfo id="left_57" depart="151.00" departLane="52o_0" departPos="5.10" departSpeed="0.00" departDelay="4.00" arrival="255.00" arrivalLane="51i_0" arrivalPos="10.00" arrivalSpeed="11.56" duration="104.00" routeLength="1015.10" waitSteps="0" timeLoss="28.25" rerouteNo="0" devices="tripinfo_left_57" vType="typeWE" vaporized=""/>
    <tripinfo id="right_53" depart="137.00" departLane="51o_0" departPos="5.10" departSpeed="0.00" departDelay="5.00" arrival="256.00" arrivalLane="52i_0" arrivalPos="10.00" arrivalSpeed="11.28" duration="119.00" routeLength="1015.10" waitSteps="4" timeLoss="42.96" rerouteNo="0" devices="tripinfo_right_53" vType="typeWE" vaporized=""/>
    <tripinfo id="left_61" depart="159.00" departLane="52o_0" departPos="5.10" departSpeed="0.00" departDelay="0.00" arrival="257.00" arrivalLane="51i_0" arrivalPos="10.00" arrivalSpeed="11.58" duration="98.00" routeLength="1015.10" waitSteps="0" timeLoss="22.09" rerouteNo="0" devices="tripinfo_left_61" vType="typeWE" vaporized=""/>
    <tripinfo id="up_41" depart="108.00" departLane="53o_0" departPos="5.10" departSpeed="0.00" departDelay="4.00" arrival="268.00" arrivalLane="54i_0" arrivalPos="10.00" arrivalSpeed="11.44" duration="160.00" routeLength="1015.10" waitSteps="43" timeLoss="84.16" rerouteNo="0" devices="tripinfo_up_41" vType="typeNS" vaporized=""/>
    <tripinfo id="down_52" depart="130.00" departLane="54o_0" departPos="5.10" departSpeed="0.00" departDelay="1.00" arrival="269.00" arrivalLane="53i_0" arrivalPos="10.00" arrivalSpeed="11.32" duration="139.00" routeLength="1015.10" waitSteps="31" timeLoss="63.14" rerouteNo="0" devices="tripinfo_down_52" vType="typeNS" vaporized=""/>
    <tripinfo id="up_42" depart="113.00" departLane="53o_0" departPos="5.10" departSpeed="0.00" departDelay="7.00" arrival="271.00" arrivalLane="54i_0" arrivalPos="10.00" arrivalSpeed="11.50" duration="158.00" routeLength="1015.10" waitSteps="40" timeLoss="81.38" rerouteNo="0" devices="tripinfo_up_42" vType="typeNS" vaporized=""/>
    <tripinfo id="down_58" depart="149.00" departLane="54o_0" departPos="5.10" departSpeed="0.00" departDelay="0.00" arrival="271.00" arrivalLane="53i_0" arrivalPos="10.00" arrivalSpeed="11.53" duration="122.00" routeLength="1015.10" waitSteps="15" timeLoss="46.06" rerouteNo="0" devices="tripinfo_down_58" vType="typeNS" vaporized=""/>
    <tripinfo id="up_43" depart="118.00" departLane="53o_0" departPos="5.10" departSpeed="0.00" departDelay="10.00" arrival="273.00" arrivalLane="54i_0" arrivalPos="10.00" arrivalSpeed="10.81" duration="155.00" routeLength="1015.10" waitSteps="40" timeLoss="78.91" rerouteNo="0" devices="tripinfo_up_43" vType="typeNS" vaporized=""/>
    <tripinfo id="down_64" depart="164.00" departLane="54o_0" departPos="5.10" departSpeed="0.00" departDelay="0.00" arrival="273.00" arrivalLane="53i_0" arrivalPos="10.00" arrivalSpeed="11.26" duration="109.00" routeLength="1015.10" waitSteps="6" timeLoss="33.05" rerouteNo="0" devices="tripinfo_down_64" vType="typeNS" vaporized=""/>
    <tripinfo id="left_72" depart="185.00" departLane="52o_0" departPos="5.10" departSpeed="0.00" departDelay="1.00" arrival="276.00" arrivalLane="51i_0" arrivalPos="10.00" arrivalSpeed="11.61" duration="91.00" routeLength="1015.10" waitSteps="0" timeLoss="15.06" rerouteNo="0" devices="tripinfo_left_72" vType="typeWE" vaporized=""/>
    <tripinfo id="right_59" depart="150.00" departLane="51o_0" departPos="5.10" departSpeed="0.00" departDelay="0.00" arrival="280.00" arrivalLane="52i_0" arrivalPos="10.00" arrivalSpeed="10.89" duration="130.00" routeLength="1015.10" waitSteps="20" timeLoss="53.98" rerouteNo="0" devices="tripinfo_right_59" vType="typeWE" vaporized=""/>
    <tripinfo id="right_60" depart="155.00" departLane="51o_0" departPos="5.10" departSpeed="0.00" departDelay="3.00" arrival="289.00" arrivalLane="52i_0" arrivalPos="10.00" arrivalSpeed="11.66" duration="134.00" routeLength="1015.10" waitSteps="19" timeLoss="57.65" rerouteNo="0" devices="tripinfo_right_60" vType="typeWE" vaporized=""/>
    <tripinfo id="right_63" depart="164.00" departLane="51o_0" departPos="5.10" departSpeed="0.00" departDelay="0.00" arrival="295.00" arrivalLane="52i_0" arrivalPos="10.00" arrivalSpeed="11.26" duration="131.00" routeLength="1015.10" waitSteps="17" timeLoss="54.43" rerouteNo="0" devices="tripinfo_right_63" vType="typeWE" vaporized=""/>
    <tripinfo id="right_66" depart="171.00" departLane="51o_0" departPos="5.10" departSpeed="0.00" departDelay="0.00" arrival="297.00" arrivalLane="52i_0" arrivalPos="10.00" arrivalSpeed="9.23" duration="126.00" routeLength="1015.10" waitSteps="10" timeLoss="49.99" rerouteNo="0" devices="tripinfo_right_66" vType="typeWE" vaporized=""/>
    <tripinfo id="down_75" depart="206.00" departLane="54o_0" departPos="5.10" departSpeed="0.00" departDelay="0.00" arrival="299.00" arrivalLane="53i_0" arrivalPos="10.00" arrivalSpeed="11.56" duration="93.00" routeLength="1015.10" waitSteps="0" timeLoss="16.29" rerouteNo="0" devices="tripinfo_down_75" vType="typeNS" vaporized=""/>
    <tripinfo id="down_78" depart="214.00" departLane="54o_0" departPos="5.10" departSpeed="0.00" departDelay="0.00" arrival="306.00" arrivalLane="53i_0" arrivalPos="10.00" arrivalSpeed="11.43" duration="92.00" routeLength="1015.10" waitSteps="0" timeLoss="15.80" rerouteNo="0" devices="tripinfo_down_78" vType="typeNS" vaporized=""/>
    <tripinfo id="up_54" depart="135.00" departLane="53o_0" departPos="5.10" departSpeed="0.00" departDelay="0.00" arrival="307.00" arrivalLane="54i_0" arrivalPos="10.00" arrivalSpeed="11.60" duration="172.00" routeLength="1015.10" waitSteps="53" timeLoss="95.47" rerouteNo="0" devices="tripinfo_up_54" vType="typeNS" vaporized=""/>
    <tripinfo id="up_56" depart="145.00" departLane="53o_0" departPos="5.10" departSpeed="0.00" departDelay="0.00" arrival="309.00" arrivalLane="54i_0" arrivalPos="10.00" arrivalSpeed="7.81" duration="164.00" routeLength="1015.10" waitSteps="43" timeLoss="88.02" rerouteNo="0" devices="tripinfo_up_56" vType="typeNS" vaporized=""/>
    <tripinfo id="up_62" depart="162.00" departLane="53o_0" departPos="5.10" departSpeed="0.00" departDelay="0.00" arrival="311.00" arrivalLane="54i_0" arrivalPos="10.00" arrivalSpeed="8.32" duration="149.00" routeLength="1015.10" waitSteps="35" timeLoss="72.95" rerouteNo="0" devices="tripinfo_up_62" vType="typeNS" vaporized=""/>
    <tripinfo id="right_69" depart="179.00" departLane="51o_0" departPos="5.10" departSpeed="0.00" departDelay="0.00" arrival="318.00" arrivalLane="52i_0" arrivalPos="10.00" arrivalSpeed="11.32" duration="139.00" routeLength="1015.10" waitSteps="16" timeLoss="62.99" rerouteNo="0" devices="tripinfo_right_69" vType="typeWE" vaporized=""/>
    <tripinfo id="left_74" depart="204.00" departLane="52o_0" departPos="5.10" departSpeed="0.00" departDelay="0.00" arrival="320.00" arrivalLane="51i_0" arrivalPos="10.00" arrivalSpeed="11.41" duration="116.00" routeLength="1015.10" waitSteps="12" timeLoss="40.27" rerouteNo="0" devices="tripinfo_left_74" vType="typeWE" vaporized=""/>
    <tripinfo id="right_70" depart="185.00" departLane="51o_0" departPos="5.10" departSpeed="0.00" departDelay="5.00" arrival="323.00" arrivalLane="52i_0" arrivalPos="10.00" arrivalSpeed="11.36" duration="138.00" routeLength="1015.10" waitSteps="13" timeLoss="61.58" rerouteNo="0" devices="tripinfo_right_70" vType="typeWE" vaporized=""/>
    <tripinfo id="left_80" depart="218.00" departLane="52o_0" departPos="5.10" departSpeed="0.00" departDelay="0.00" arrival="325.00" arrivalLane="51i_0" arrivalPos="10.00" arrivalSpeed="11.08" duration="107.00" routeLength="1015.10" waitSteps="0" timeLoss="31.03" rerouteNo="0" devices="tripinfo_left_80" vType="typeWE" vaporized=""/>
    <tripinfo id="right_71" depart="190.00" departLane="51o_0" departPos="5.10" departSpeed="0.00" departDelay="8.00" arrival="325.00" arrivalLane="52i_0" arrivalPos="10.00" arrivalSpeed="8.50" duration="135.00" routeLength="1015.10" waitSteps="11" timeLoss="58.96" rerouteNo="0" devices="tripinfo_right_71" vType="typeWE" vaporized=""/>
    <tripinfo id="left_83" depart="232.00" departLane="52o_0" departPos="5.10" departSpeed="0.00" departDelay="0.00" arrival="327.00" arrivalLane="51i_0" arrivalPos="10.00" arrivalSpeed="11.40" duration="95.00" routeLength="1015.10" waitSteps="0" timeLoss="18.92" rerouteNo="0" devices="tripinfo_left_83" vType="typeWE" vaporized=""/>
    <tripinfo id="right_77" depart="213.00" departLane="51o_0" departPos="5.10" departSpeed="0.00" departDelay="0.00" arrival="329.00" arrivalLane="52i_0" arrivalPos="10.00" arrivalSpeed="11.54" duration="116.00" routeLength="1015.10" waitSteps="6" timeLoss="39.88" rerouteNo="0" devices="tripinfo_right_77" vType="typeWE" vaporized=""/>
    <tripinfo id="down_81" depart="220.00" departLane="54o_0" departPos="5.10" departSpeed="0.00" departDelay="0.00" arrival="341.00" arrivalLane="53i_0" arrivalPos="10.00" arrivalSpeed="11.82" duration="121.00" routeLength="1015.10" waitSteps="18" timeLoss="44.98" rerouteNo="0" devices="tripinfo_down_81" vType="typeNS" vaporized=""/>
    <tripinfo id="up_65" depart="170.00" departLane="53o_0" departPos="5.10" departSpeed="0.00" departDelay="0.00" arrival="342.00" arrivalLane="54i_0" arrivalPos="10.00" arrivalSpeed="11.33" duration="172.00" routeLength="1015.10" waitSteps="50" timeLoss="95.48" rerouteNo="0" devices="tripinfo_up_65" vType="typeNS" vaporized=""/>
    <tripinfo id="down_85" depart="241.00" departLane="54o_0" departPos="5.10" departSpeed="0.00" departDelay="0.00" arrival="343.00" arrivalLane="53i_0" arrivalPos="10.00" arrivalSpeed="11.70" duration="102.00" routeLength="1015.10" waitSteps="0" timeLoss="26.14" rerouteNo="0" devices="tripinfo_down_85" vType="typeNS" vaporized=""/>
    <tripinfo id="up_67" depart="177.00" departLane="53o_0" departPos="5.10" departSpeed="0.00" departDelay="2.00" arrival="344.00" arrivalLane="54i_0" arrivalPos="10.00" arrivalSpeed="9.28" duration="167.00" routeLength="1015.10" waitSteps="43" timeLoss="90.92" rerouteNo="0" devices="tripinfo_up_67" vType="typeNS" vaporized=""/>
    <tripinfo id="left_91" depart="253.00" departLane="52o_0" departPos="5.10" departSpeed="0.00" departDelay="0.00" arrival="346.00" arrivalLane="51i_0" arrivalPos="10.00" arrivalSpeed="11.72" duration="93.00" routeLength="1015.10" waitSteps="0" timeLoss="16.22" rerouteNo="0" devices="tripinfo_left_91" vType="typeWE" vaporized=""/>
    <tripinfo id="left_94" depart="258.00" departLane="52o_0" departPos="5.10" departSpeed="0.00" departDelay="0.00" arrival="349.00" arrivalLane="51i_0" arrivalPos="10.00" arrivalSpeed="11.40" duration="91.00" routeLength="1015.10" waitSteps="0" timeLoss="14.84" rerouteNo="0" devices="tripinfo_left_94" vType="typeWE" vaporized=""/>
    <tripinfo id="right_79" depart="218.00" departLane="51o_0" departPos="5.10" departSpeed="0.00" departDelay="2.00" arrival="352.00" arrivalLane="52i_0" arrivalPos="10.00" arrivalSpeed="11.26" duration="134.00" routeLength="1015.10" waitSteps="17" timeLoss="57.41" rerouteNo="0" devices="tripinfo_right_79" vType="typeWE" vaporized=""/>
    <tripinfo id="up_68" depart="182.00" departLane="53o_0" departPos="5.10" departSpeed="0.00" departDelay="4.00" arrival="363.00" arrivalLane="54i_0" arrivalPos="10.00" arrivalSpeed="11.16" duration="181.00" routeLength="1015.10" waitSteps="56" timeLoss="105.19" rerouteNo="0" devices="tripinfo_up_68" vType="typeNS" vaporized=""/>
    <tripinfo id="down_92" depart="254.00" departLane="54o_0" departPos="5.10" departSpeed="0.00" departDelay="0.00" arrival="364.00" arrivalLane="53i_0" arrivalPos="10.00" arrivalSpeed="11.55" duration="110.00" routeLength="1015.10" waitSteps="7" timeLoss="33.81" rerouteNo="0" devices="tripinfo_down_92" vType="typeNS" vaporized=""/>
    <tripinfo id="up_73" depart="193.00" departLane="53o_0" departPos="5.10" departSpeed="0.00" departDelay="0.00" arrival="365.00" arrivalLane="54i_0" arrivalPos="10.00" arrivalSpeed="11.65" duration="172.00" routeLength="1015.10" waitSteps="51" timeLoss="96.04" rerouteNo="0" devices="tripinfo_up_73" vType="typeNS" vaporized=""/>