<?xml version="1.0" encoding="UTF-8"?>

<!-- generated on Sun 04 Dec 2016 08:58:02 PM EST by SUMO gui Version 0.25.0
<?xml version="1.0" encoding="UTF-8"?>

<configuration xmlns:xsi="http://www.w3.org/2001/XMLSchema-instance" xsi:noNamespaceSchemaLocation="http://sumo.dlr.de/xsd/sumo-gui.exeConfiguration.xsd">

    <input>
        <net-file value="data/cross.net.xml"/>
        <route-files value="data/cross.rou.xml"/>
        <additional-files value="data/cross.det.xml"/>
    </input>

    <output>
        <tripinfo-output value="tripinfo.xml"/>
        <save-state.prefix value="data/state"/>
    </output>

    <time>
        <begin value="0"/>
    </time>

    <report>
        <verbose value="true"/>
        <no-step-log value="true"/>
    </report>

    <emissions>
        <phemlight-path value="data/./PHEMlight/"/>
    </emissions>

    <traci_server>
        <remote-port value="8873"/>
    </traci_server>

</configuration>
-->

<tripinfos xmlns:xsi="http://www.w3.org/2001/XMLSchema-instance" xsi:noNamespaceSchemaLocation="http://sumo.dlr.de/xsd/tripinfo_file.xsd">
    <tripinfo id="up_1" depart="1.00" departLane="53o_0" departPos="5.10" departSpeed="0.00" departDelay="0.00" arrival="92.00" arrivalLane="54i_0" arrivalPos="10.00" arrivalSpeed="11.64" duration="91.00" routeLength="1015.10" waitSteps="0" timeLoss="15.03" rerouteNo="0" devices="tripinfo_up_1" vType="typeNS" vaporized=""/>
    <tripinfo id="right_3" depart="3.00" departLane="51o_0" departPos="5.10" departSpeed="0.00" departDelay="0.00" arrival="98.00" arrivalLane="52i_0" arrivalPos="10.00" arrivalSpeed="11.22" duration="95.00" routeLength="1015.10" waitSteps="0" timeLoss="18.77" rerouteNo="0" devices="tripinfo_right_3" vType="typeWE" vaporized=""/>
    <tripinfo id="right_8" depart="11.00" departLane="51o_0" departPos="5.10" departSpeed="0.00" departDelay="0.00" arrival="102.00" arrivalLane="52i_0" arrivalPos="10.00" arrivalSpeed="11.24" duration="91.00" routeLength="1015.10" waitSteps="0" timeLoss="14.97" rerouteNo="0" devices="tripinfo_right_8" vType="typeWE" vaporized=""/>
    <tripinfo id="left_0" depart="0.00" departLane="52o_0" departPos="5.10" departSpeed="0.00" departDelay="0.00" arrival="105.00" arrivalLane="51i_0" arrivalPos="10.00" arrivalSpeed="11.37" duration="105.00" routeLength="1015.10" waitSteps="3" timeLoss="28.46" rerouteNo="0" devices="tripinfo_left_0" vType="typeWE" vaporized=""/>
    <tripinfo id="left_2" depart="5.00" departLane="52o_0" departPos="5.10" departSpeed="0.00" departDelay="3.00" arrival="107.00" arrivalLane="51i_0" arrivalPos="10.00" arrivalSpeed="8.23" duration="102.00" routeLength="1015.10" waitSteps="0" timeLoss="26.07" rerouteNo="0" devices="tripinfo_left_2" vType="typeWE" vaporized=""/>
    <tripinfo id="left_7" depart="10.00" departLane="52o_0" departPos="5.10" departSpeed="0.00" departDelay="0.00" arrival="109.00" arrivalLane="51i_0" arrivalPos="10.00" arrivalSpeed="9.26" duration="99.00" routeLength="1015.10" waitSteps="0" timeLoss="22.91" rerouteNo="0" devices="tripinfo_left_7" vType="typeWE" vaporized=""/>
    <tripinfo id="down_5" depart="6.00" departLane="54o_0" departPos="5.10" departSpeed="0.00" departDelay="0.00" arrival="125.00" arrivalLane="53i_0" arrivalPos="10.00" arrivalSpeed="11.57" duration="119.00" routeLength="1015.10" waitSteps="20" timeLoss="41.85" rerouteNo="0" devices="tripinfo_down_5" vType="typeNS" vaporized=""/>
    <tripinfo id="up_4" depart="6.00" departLane="53o_0" departPos="5.10" departSpeed="0.00" departDelay="2.00" arrival="127.00" arrivalLane="54i_0" arrivalPos="10.00" arrivalSpeed="11.28" duration="121.00" routeLength="1015.10" waitSteps="19" timeLoss="44.98" rerouteNo="0" devices="tripinfo_up_4" vType="typeNS" vaporized=""/>
    <tripinfo id="down_12" depart="23.00" departLane="54o_0" departPos="5.10" departSpeed="0.00" departDelay="0.00" arrival="128.00" arrivalLane="53i_0" arrivalPos="10.00" arrivalSpeed="11.47" duration="105.00" routeLength="1015.10" waitSteps="2" timeLoss="28.63" rerouteNo="0" devices="tripinfo_down_12" vType="typeNS" vaporized=""/>
    <tripinfo id="up_6" depart="11.00" departLane="53o_0" departPos="5.10" departSpeed="0.00" departDelay="5.00" arrival="129.00" arrivalLane="54i_0" arrivalPos="10.00" arrivalSpeed="10.59" duration="118.00" routeLength="1015.10" waitSteps="15" timeLoss="41.97" rerouteNo="0" devices="tripinfo_up_6" vType="typeNS" vaporized=""/>
    <tripinfo id="down_15" depart="31.00" departLane="54o_0" departPos="5.10" departSpeed="0.00" departDelay="0.00" arrival="130.00" arrivalLane="53i_0" arrivalPos="10.00" arrivalSpeed="10.25" duration="99.00" routeLength="1015.10" waitSteps="0" timeLoss="23.01" rerouteNo="0" devices="tripinfo_down_15" vType="typeNS" vaporized=""/>
    <tripinfo id="up_9" depart="16.00" departLane="53o_0" departPos="5.10" departSpeed="0.00" departDelay="0.00" arrival="131.00" arrivalLane="54i_0" arrivalPos="10.00" arrivalSpeed="10.96" duration="115.00" routeLength="1015.10" waitSteps="10" timeLoss="38.95" rerouteNo="0" devices="tripinfo_up_9" vType="typeNS" vaporized=""/>
    <tripinfo id="left_11" depart="22.00" departLane="52o_0" departPos="5.10" departSpeed="0.00" departDelay="0.00" arrival="136.00" arrivalLane="51i_0" arrivalPos="10.00" arrivalSpeed="11.62" duration="114.00" routeLength="1015.10" waitSteps="12" timeLoss="38.27" rerouteNo="0" devices="tripinfo_left_11" vType="typeWE" vaporized=""/>
    <tripinfo id="right_10" depart="22.00" departLane="51o_0" departPos="5.10" departSpeed="0.00" departDelay="0.00" arrival="137.00" arrivalLane="52i_0" arrivalPos="10.00" arrivalSpeed="11.17" duration="115.00" routeLength="1015.10" waitSteps="10" timeLoss="38.39" rerouteNo="0" devices="tripinfo_right_10" vType="typeWE" vaporized=""/>
    <tripinfo id="left_20" depart="41.00" departLane="52o_0" departPos="5.10" departSpeed="0.00" departDelay="0.00" arrival="138.00" arrivalLane="51i_0" arrivalPos="10.00" arrivalSpeed="11.24" duration="97.00" routeLength="1015.10" waitSteps="0" timeLoss="21.16" rerouteNo="0" devices="tripinfo_left_20" vType="typeWE" vaporized=""/>
    <tripinfo id="right_13" depart="27.00" departLane="51o_0" departPos="5.10" departSpeed="0.00" departDelay="2.00" arrival="139.00" arrivalLane="52i_0" arrivalPos="10.00" arrivalSpeed="7.69" duration="112.00" routeLength="1015.10" waitSteps="6" timeLoss="35.97" rerouteNo="0" devices="tripinfo_right_13" vType="typeWE" vaporized=""/>
    <tripinfo id="left_23" depart="49.00" departLane="52o_0" departPos="5.10" departSpeed="0.00" departDelay="0.00" arrival="140.00" arrivalLane="51i_0" arrivalPos="10.00" arrivalSpeed="11.06" duration="91.00" routeLength="1015.10" waitSteps="0" timeLoss="15.10" rerouteNo="0" devices="tripinfo_left_23" vType="typeWE" vaporized=""/>
    <tripinfo id="right_14" depart="32.00" departLane="51o_0" departPos="5.10" departSpeed="0.00" departDelay="1.00" arrival="141.00" arrivalLane="52i_0" arrivalPos="10.00" arrivalSpeed="8.95" duration="109.00" routeLength="1015.10" waitSteps="6" timeLoss="33.04" rerouteNo="0" devices="tripinfo_right_14" vType="typeWE" vaporized=""/>
    <tripinfo id="right_18" depart="37.00" departLane="51o_0" departPos="5.10" departSpeed="0.00" departDelay="3.00" arrival="143.00" arrivalLane="52i_0" arrivalPos="10.00" arrivalSpeed="8.72" duration="106.00" routeLength="1015.10" waitSteps="2" timeLoss="30.01" rerouteNo="0" devices="tripinfo_right_18" vType="typeWE" vaporized=""/>
    <tripinfo id="right_19" depart="42.00" departLane="51o_0" departPos="5.10" departSpeed="0.00" departDelay="2.00" arrival="145.00" arrivalLane="52i_0" arrivalPos="10.00" arrivalSpeed="10.97" duration="103.00" routeLength="1015.10" waitSteps="0" timeLoss="26.90" rerouteNo="0" devices="tripinfo_right_19" vType="typeWE" vaporized=""/>
    <tripinfo id="right_21" depart="47.00" departLane="51o_0" departPos="5.10" departSpeed="0.00" departDelay="3.00" arrival="147.00" arrivalLane="52i_0" arrivalPos="10.00" arrivalSpeed="10.64" duration="100.00" routeLength="1015.10" waitSteps="0" timeLoss="24.01" rerouteNo="0" devices="tripinfo_right_21" vType="typeWE" vaporized=""/>
    <tripinfo id="right_25" depart="56.00" departLane="51o_0" departPos="5.10" departSpeed="0.00" departDelay="0.00" arrival="149.00" arrivalLane="52i_0" arrivalPos="10.00" arrivalSpeed="10.43" duration="93.00" routeLength="1015.10" waitSteps="0" timeLoss="16.83" rerouteNo="0" devices="tripinfo_right_25" vType="typeWE" vaporized=""/>
    <tripinfo id="right_27" depart="63.00" departLane="51o_0" departPos="5.10" departSpeed="0.00" departDelay="0.00" arrival="154.00" arrivalLane="52i_0" arrivalPos="10.00" arrivalSpeed="10.86" duration="91.00" routeLength="1015.10" waitSteps="0" timeLoss="14.82" rerouteNo="0" devices="tripinfo_right_27" vType="typeWE" vaporized=""/>
    <tripinfo id="left_29" depart="67.00" departLane="52o_0" departPos="5.10" departSpeed="0.00" departDelay="0.00" arrival="158.00" arrivalLane="51i_0" arrivalPos="10.00" arrivalSpeed="11.08" duration="91.00" routeLength="1015.10" waitSteps="0" timeLoss="14.86" rerouteNo="0" devices="tripinfo_left_29" vType="typeWE" vaporized=""/>
    <tripinfo id="right_28" depart="68.00" departLane="51o_0" departPos="5.10" departSpeed="0.00" departDelay="4.00" arrival="159.00" arrivalLane="52i_0" arrivalPos="10.00" arrivalSpeed="11.29" duration="91.00" routeLength="1015.10" waitSteps="0" timeLoss="14.66" rerouteNo="0" devices="tripinfo_right_28" vType="typeWE" vaporized=""/>
    <tripinfo id="up_16" depart="32.00" departLane="53o_0" departPos="5.10" departSpeed="0.00" departDelay="0.00" arrival="173.00" arrivalLane="54i_0" arrivalPos="10.00" arrivalSpeed="11.58" duration="141.00" routeLength="1015.10" waitSteps="33" timeLoss="65.03" rerouteNo="0" devices="tripinfo_up_16" vType="typeNS" vaporized=""/>
    <tripinfo id="down_17" depart="36.00" departLane="54o_0" departPos="5.10" departSpeed="0.00" departDelay="3.00" arrival="173.00" arrivalLane="53i_0" arrivalPos="10.00" arrivalSpeed="11.53" duration="137.00" routeLength="1015.10" waitSteps="34" timeLoss="61.09" rerouteNo="0" devices="tripinfo_down_17" vType="typeNS" vaporized=""/>
    <tripinfo id="up_22" depart="45.00" departLane="53o_0" departPos="5.10" departSpeed="0.00" departDelay="0.00" arrival="175.00" arrivalLane="54i_0" arrivalPos="10.00" arrivalSpeed="11.12" duration="130.00" routeLength="1015.10" waitSteps="28" timeLoss="54.02" rerouteNo="0" devices="tripinfo_up_22" vType="typeNS" vaporized=""/>
    <tripinfo id="down_26" depart="57.00" departLane="54o_0" departPos="5.10" departSpeed="0.00" departDelay="0.00" arrival="176.00" arrivalLane="53i_0" arrivalPos="10.00" arrivalSpeed="11.44" duration="119.00" routeLength="1015.10" waitSteps="17" timeLoss="42.87" rerouteNo="0" devices="tripinfo_down_26" vType="typeNS" vaporized=""/>
    <tripinfo id="up_24" depart="51.00" departLane="53o_0" departPos="5.10" departSpeed="0.00" departDelay="0.00" arrival="177.00" arrivalLane="54i_0" arrivalPos="10.00" arrivalSpeed="11.14" duration="126.00" routeLength="1015.10" waitSteps="22" timeLoss="49.95" rerouteNo="0" devices="tripinfo_up_24" vType="typeNS" vaporized=""/>
    <tripinfo id="down_31" depart="72.00" departLane="54o_0" departPos="5.10" departSpeed="0.00" departDelay="0.00" arrival="178.00" arrivalLane="53i_0" arrivalPos="10.00" arrivalSpeed="10.56" duration="106.00" routeLength="1015.10" waitSteps="2" timeLoss="29.91" rerouteNo="0" devices="tripinfo_down_31" vType="typeNS" vaporized=""/>
    <tripinfo id="up_30" depart="71.00" departLane="53o_0" departPos="5.10" departSpeed="0.00" departDelay="0.00" arrival="179.00" arrivalLane="54i_0" arrivalPos="10.00" arrivalSpeed="10.23" duration="108.00" routeLength="1015.10" waitSteps="6" timeLoss="32.02" rerouteNo="0" devices="tripinfo_up_30" vType="typeNS" vaporized=""/>
    <tripinfo id="down_33" depart="77.00" departLane="54o_0" departPos="5.10" departSpeed="0.00" departDelay="3.00" arrival="180.00" arrivalLane="53i_0" arrivalPos="10.00" arrivalSpeed="10.75" duration="103.00" routeLength="1015.10" waitSteps="0" timeLoss="26.93" rerouteNo="0" devices="tripinfo_down_33" vType="typeNS" vaporized=""/>
    <tripinfo id="down_35" depart="85.00" departLane="54o_0" departPos="5.10" departSpeed="0.00" departDelay="0.00" arrival="182.00" arrivalLane="53i_0" arrivalPos="10.00" arrivalSpeed="11.57" duration="97.00" routeLength="1015.10" waitSteps="0" timeLoss="21.22" rerouteNo="0" devices="tripinfo_down_35" vType="typeNS" vaporized=""/>
    <tripinfo id="up_37" depart="93.00" departLane="53o_0" departPos="5.10" departSpeed="0.00" departDelay="0.00" arrival="185.00" arrivalLane="54i_0" arrivalPos="10.00" arrivalSpeed="11.49" duration="92.00" routeLength="1015.10" waitSteps="0" timeLoss="15.71" rerouteNo="0" devices="tripinfo_up_37" vType="typeNS" vaporized=""/>
    <tripinfo id="down_38" depart="98.00" departLane="54o_0" departPos="5.10" departSpeed="0.00" departDelay="0.00" arrival="189.00" arrivalLane="53i_0" arrivalPos="10.00" arrivalSpeed="11.38" duration="91.00" routeLength="1015.10" waitSteps="0" timeLoss="14.82" rerouteNo="0" devices="tripinfo_down_38" vType="typeNS" vaporized=""/>
    <tripinfo id="down_39" depart="103.00" departLane="54o_0" departPos="5.10" departSpeed="0.00" departDelay="2.00" arrival="194.00" arrivalLane="53i_0" arrivalPos="10.00" arrivalSpeed="11.49" duration="91.00" routeLength="1015.10" waitSteps="0" timeLoss="14.24" rerouteNo="0" devices="tripinfo_down_39" vType="typeNS" vaporized=""/>
    <tripinfo id="up_40" depart="103.00" departLane="53o_0" departPos="5.10" departSpeed="0.00" departDelay="0.00" arrival="195.00" arrivalLane="54i_0" arrivalPos="10.00" arrivalSpeed="11.51" duration="92.00" routeLength="1015.10" waitSteps="0" timeLoss="15.84" rerouteNo="0" devices="tripinfo_up_40" vType="typeNS" vaporized=""/>
    <tripinfo id="left_32" depart="74.00" departLane="52o_0" departPos="5.10" departSpeed="0.00" departDelay="0.00" arrival="210.00" arrivalLane="51i_0" arrivalPos="10.00" arrivalSpeed="11.65" duration="136.00" routeLength="1015.10" waitSteps="34" timeLoss="60.10" rerouteNo="0" devices="tripinfo_left_32" vType="typeWE" vaporized=""/>
    <tripinfo id="right_34" depart="81.00" departLane="51o_0" departPos="5.10" departSpeed="0.00" departDelay="0.00" arrival="210.00" arrivalLane="52i_0" arrivalPos="10.00" arrivalSpeed="11.53" duration="129.00" routeLength="1015.10" waitSteps="28" timeLoss="52.84" rerouteNo="0" devices="tripinfo_right_34" vType="typeWE" vaporized=""/>
    <tripinfo id="down_52" depart="129.00" departLane="54o_0" departPos="5.10" departSpeed="0.00" departDelay="0.00" arrival="219.00" arrivalLane="53i_0" arrivalPos="10.00" arrivalSpeed="10.85" duration="90.00" routeLength="1015.10" waitSteps="0" timeLoss="13.85" rerouteNo="0" devices="tripinfo_down_52" vType="typeNS" vaporized=""/>
    <tripinfo id="up_41" depart="108.00" departLane="53o_0" departPos="5.10" departSpeed="0.00" departDelay="4.00" arrival="222.00" arrivalLane="54i_0" arrivalPos="10.00" arrivalSpeed="11.45" duration="114.00" routeLength="1015.10" waitSteps="13" timeLoss="38.09" rerouteNo="0" devices="tripinfo_up_41" vType="typeNS" vaporized=""/>
    <tripinfo id="up_42" depart="113.00" departLane="53o_0" departPos="5.10" departSpeed="0.00" departDelay="7.00" arrival="224.00" arrivalLane="54i_0" arrivalPos="10.00" arrivalSpeed="11.36" duration="111.00" routeLength="1015.10" waitSteps="8" timeLoss="35.05" rerouteNo="0" devices="tripinfo_up_42" vType="typeNS" vaporized=""/>
    <tripinfo id="up_43" depart="119.00" departLane="53o_0" departPos="5.10" departSpeed="0.00" departDelay="11.00" arrival="226.00" arrivalLane="54i_0" arrivalPos="10.00" arrivalSpeed="10.54" duration="107.00" routeLength="1015.10" waitSteps="4" timeLoss="30.94" rerouteNo="0" devices="tripinfo_up_43" vType="typeNS" vaporized=""/>
    <tripinfo id="right_36" depart="92.00" departLane="51o_0" departPos="5.10" departSpeed="0.00" departDelay="0.00" arrival="232.00" arrivalLane="52i_0" arrivalPos="10.00" arrivalSpeed="11.46" duration="140.00" routeLength="1015.10" waitSteps="33" timeLoss="64.25" rerouteNo="0" devices="tripinfo_right_36" vType="typeWE" vaporized=""/>
    <tripinfo id="left_45" depart="117.00" departLane="52o_0" departPos="5.10" departSpeed="0.00" departDelay="0.00" arrival="233.00" arrivalLane="51i_0" arrivalPos="10.00" arrivalSpeed="11.70" duration="116.00" routeLength="1015.10" waitSteps="12" timeLoss="39.57" rerouteNo="0" devices="tripinfo_left_45" vType="typeWE" vaporized=""/>
    <tripinfo id="left_46" depart="122.00" departLane="52o_0" departPos="5.10" departSpeed="0.00" departDelay="2.00" arrival="235.00" arrivalLane="51i_0" arrivalPos="10.00" arrivalSpeed="11.36" duration="113.00" routeLength="1015.10" waitSteps="10" timeLoss="36.99" rerouteNo="0" devices="tripinfo_left_46" vType="typeWE" vaporized=""/>
    <tripinfo id="right_44" depart="115.00" departLane="51o_0" departPos="5.10" departSpeed="0.00" departDelay="0.00" arrival="235.00" arrivalLane="52i_0" arrivalPos="10.00" arrivalSpeed="11.68" duration="120.00" routeLength="1015.10" waitSteps="16" timeLoss="43.33" rerouteNo="0" devices="tripinfo_right_44" vType="typeWE" vaporized=""/>
    <tripinfo id="left_47" depart="127.00" departLane="52o_0" departPos="5.10" departSpeed="0.00" departDelay="4.00" arrival="237.00" arrivalLane="51i_0" arrivalPos="10.00" arrivalSpeed="10.82" duration="110.00" routeLength="1015.10" waitSteps="5" timeLoss="33.97" rerouteNo="0" devices="tripinfo_left_47" vType="typeWE" vaporized=""/>
    <tripinfo id="right_49" depart="126.00" departLane="51o_0" departPos="5.10" departSpeed="0.00" departDelay="0.00" arrival="237.00" arrivalLane="52i_0" arrivalPos="10.00" arrivalSpeed="9.39" duration="111.00" routeLength="1015.10" waitSteps="7" timeLoss="35.00" rerouteNo="0" devices="tripinfo_right_49" vType="typeWE" vaporized=""/>
    <tripinfo id="left_48" depart="133.00" departLane="52o_0" departPos="5.10" departSpeed="0.00" departDelay="8.00" arrival="239.00" arrivalLane="51i_0" arrivalPos="10.00" arrivalSpeed="10.81" duration="106.00" routeLength="1015.10" waitSteps="1" timeLoss="30.02" rerouteNo="0" devices="tripinfo_left_48" vType="typeWE" vaporized=""/>
    <tripinfo id="right_50" depart="131.00" departLane="51o_0" departPos="5.10" departSpeed="0.00" departDelay="4.00" arrival="239.00" arrivalLane="52i_0" arrivalPos="10.00" arrivalSpeed="11.57" duration="108.00" routeLength="1015.10" waitSteps="4" timeLoss="32.11" rerouteNo="0" devices="tripinfo_right_50" vType="typeWE" vaporized=""/>
    <tripinfo id="left_51" depart="139.00" departLane="52o_0" departPos="5.10" departSpeed="0.00" departDelay="10.00" arrival="241.00" arrivalLane="51i_0" arrivalPos="10.00" arrivalSpeed="10.27" duration="102.00" routeLength="1015.10" waitSteps="0" timeLoss="25.97" rerouteNo="0" devices="tripinfo_left_51" vType="typeWE" vaporized=""/>
    <tripinfo id="right_53" depart="136.00" departLane="51o_0" departPos="5.10" departSpeed="0.00" departDelay="4.00" arrival="241.00" arrivalLane="52i_0" arrivalPos="10.00" arrivalSpeed="10.87" duration="105.00" routeLength="1015.10" waitSteps="0" timeLoss="29.00" rerouteNo="0" devices="tripinfo_right_53" vType="typeWE" vaporized=""/>
    <tripinfo id="up_54" depart="135.00" departLane="53o_0" departPos="5.10" departSpeed="0.00" departDelay="0.00" arrival="254.00" arrivalLane="54i_0" arrivalPos="10.00" arrivalSpeed="11.70" duration="119.00" routeLength="1015.10" waitSteps="16" timeLoss="43.20" rerouteNo="0" devices="tripinfo_up_54" vType="typeNS" vaporized=""/>
    <tripinfo id="down_58" depart="149.00" departLane="54o_0" departPos="5.10" departSpeed="0.00" departDelay="0.00" arrival="255.00" arrivalLane="53i_0" arrivalPos="10.00" arrivalSpeed="11.45" duration="106.00" routeLength="1015.10" waitSteps="4" timeLoss="29.97" rerouteNo="0" devices="tripinfo_down_58" vType="typeNS" vaporized=""/>
    <tripinfo id="up_56" depart="145.00" departLane="53o_0" departPos="5.10" departSpeed="0.00" departDelay="0.00" arrival="256.00" arrivalLane="54i_0" arrivalPos="10.00" arrivalSpeed="11.77" duration="111.00" routeLength="1015.10" waitSteps="9" timeLoss="35.16" rerouteNo="0" devices="tripinfo_up_56" vType="typeNS" vaporized=""/>
    <tripinfo id="down_64" depart="164.00" departLane="54o_0" departPos="5.10" departSpeed="0.00" departDelay="0.00" arrival="257.00" arrivalLane="53i_0" arrivalPos="10.00" arrivalSpeed="11.01" duration="93.00" routeLength="1015.10" waitSteps="0" timeLoss="16.86" rerouteNo="0" devices="tripinfo_down_64" vType="typeNS" vaporized=""/>
    <tripinfo id="up_62" depart="162.00" departLane="53o_0" departPos="5.10" departSpeed="0.00" departDelay="0.00" arrival="258.00" arrivalLane="54i_0" arrivalPos="10.00" arrivalSpeed="11.63" duration="96.00" routeLength="1015.10" waitSteps="0" timeLoss="20.06" rerouteNo="0" devices="tripinfo_up_62" vType="typeNS" vaporized=""/>
    <tripinfo id="left_55" depart="145.00" departLane="52o_0" departPos="5.10" departSpeed="0.00" departDelay="8.00" arrival="265.00" arrivalLane="51i_0" arrivalPos="10.00" arrivalSpeed="11.83" duration="120.00" routeLength="1015.10" waitSteps="14" timeLoss="43.70" rerouteNo="0" devices="tripinfo_left_55" vType="typeWE" vaporized=""/>
    <tripinfo id="right_59" depart="150.00" departLane="51o_0" departPos="5.10" departSpeed="0.00" departDelay="0.00" arrival="265.00" arrivalLane="52i_0" arrivalPos="10.00" arrivalSpeed="11.32" duration="115.00" routeLength="1015.10" waitSteps="11" timeLoss="38.40" rerouteNo="0" devices="tripinfo_right_59" vType="typeWE" vaporized=""/>
    <tripinfo id="left_57" depart="150.00" departLane="52o_0" departPos="5.10" departSpeed="0.00" departDelay="3.00" arrival="267.00" arrivalLane="51i_0" arrivalPos="10.00" arrivalSpeed="11.29" duration="117.00" routeLength="1015.10" waitSteps="13" timeLoss="41.01" rerouteNo="0" devices="tripinfo_left_57" vType="typeWE" vaporized=""/>
    <tripinfo id="right_60" depart="155.00" departLane="51o_0" departPos="5.10" departSpeed="0.00" departDelay="3.00" arrival="267.00" arrivalLane="52i_0" arrivalPos="10.00" arrivalSpeed="9.65" duration="112.00" routeLength="1015.10" waitSteps="9" timeLoss="35.93" rerouteNo="0" devices="tripinfo_right_60" vType="typeWE" vaporized=""/>
    <tripinfo id="left_61" depart="159.00" departLane="52o_0" departPos="5.10" departSpeed="0.00" departDelay="0.00" arrival="269.00" arrivalLane="51i_0" arrivalPos="10.00" arrivalSpeed="10.80" duration="110.00" routeLength="1015.10" waitSteps="5" timeLoss="34.05" rerouteNo="0" devices="tripinfo_left_61" vType="typeWE" vaporized=""/>
    <tripinfo id="right_63" depart="164.00" departLane="51o_0" departPos="5.10" departSpeed="0.00" departDelay="0.00" arrival="269.00" arrivalLane="52i_0" arrivalPos="10.00" arrivalSpeed="10.80" duration="105.00" routeLength="1015.10" waitSteps="2" timeLoss="29.05" rerouteNo="0" devices="tripinfo_right_63" vType="typeWE" vaporized=""/>
    <tripinfo id="right_66" depart="171.00" departLane="51o_0" departPos="5.10" departSpeed="0.00" departDelay="0.00" arrival="271.00" arrivalLane="52i_0" arrivalPos="10.00" arrivalSpeed="11.37" duration="100.00" routeLength="1015.10" waitSteps="0" timeLoss="24.05" rerouteNo="0" devices="tripinfo_right_66" vType="typeWE" vaporized=""/>
    <tripinfo id="right_69" depart="179.00" departLane="51o_0" departPos="5.10" departSpeed="0.00" departDelay="0.00" arrival="273.00" arrivalLane="52i_0" arrivalPos="10.00" arrivalSpeed="10.56" duration="94.00" routeLength="1015.10" waitSteps="0" timeLoss="18.05" rerouteNo="0" devices="tripinfo_right_69" vType="typeWE" vaporized=""/>
    <tripinfo id="up_65" depart="170.00" departLane="53o_0" departPos="5.10" departSpeed="0.00" departDelay="0.00" arrival="286.00" arrivalLane="54i_0" arrivalPos="10.00" arrivalSpeed="11.37" duration="116.00" routeLength="1015.10" waitSteps="14" timeLoss="40.05" rerouteNo="0" devices="tripinfo_up_65" vType="typeNS" vaporized=""/>
    <tripinfo id="up_67" depart="176.00" departLane="53o_0" departPos="5.10" departSpeed="0.00" departDelay="1.00" arrival="288.00" arrivalLane="54i_0" arrivalPos="10.00" arrivalSpeed="10.51" duration="112.00" routeLength="1015.10" waitSteps="8" timeLoss="36.04" rerouteNo="0" devices="tripinfo_up_67" vType="typeNS" vaporized=""/>
    <tripinfo id="up_68" depart="182.00" departLane="53o_0" departPos="5.10" departSpeed="0.00" departDelay="4.00" arrival="290.00" arrivalLane="54i_0" arrivalPos="10.00" arrivalSpeed="11.51" duration="108.00" routeLength="1015.10" waitSteps="5" timeLoss="32.16" rerouteNo="0" devices="tripinfo_up_68" vType="typeNS" vaporized=""/>
    <tripinfo id="right_70" depart="185.00" departLane="51o_0" departPos="5.10" departSpeed="0.00" departDelay="5.00" arrival="295.00" arrivalLane="52i_0" arrivalPos="10.00" arrivalSpeed="10.80" duration="110.00" routeLength="1015.10" waitSteps="9" timeLoss="34.00" rerouteNo="0" devices="tripinfo_right_70" vType="typeWE" vaporized=""/>
    <tripinfo id="left_72" depart="184.00" departLane="52o_0" departPos="5.10" departSpeed="0.00" departDelay="0.00" arrival="296.00" arrivalLane="51i_0" arrivalPos="10.00" arrivalSpeed="11.33" duration="112.00" routeLength="1015.10" waitSteps="11" timeLoss="35.41" rerouteNo="0" devices="tripinfo_left_72" vType="typeWE" vaporized=""/>
    <tripinfo id="left_74" depart="204.00" departLane="52o_0" departPos="5.10" departSpeed="0.00" departDelay="0.00" arrival="298.00" arrivalLane="51i_0" arrivalPos="10.00" arrivalSpeed="7.77" duration="94.00" routeLength="1015.10" waitSteps="0" timeLoss="17.83" rerouteNo="0" devices="tripinfo_left_74" vType="typeWE" vaporized=""/>
    <tripinfo id="right_71" depart="190.00" departLane="51o_0" departPos="5.10" departSpeed="0.00" departDelay="8.00" arrival="298.00" arrivalLane="52i_0" arrivalPos="10.00" arrivalSpeed="11.30" duration="108.00" routeLength="1015.10" waitSteps="5" timeLoss="32.31" rerouteNo="0" devices="tripinfo_right_71" vType="typeWE" vaporized=""/>
    <tripinfo id="right_77" depart="213.00" departLane="51o_0" departPos="5.10" departSpeed="0.00" departDelay="0.00" arrival="304.00" arrivalLane="52i_0" arrivalPos="10.00" arrivalSpeed="11.50" duration="91.00" routeLength="1015.10" waitSteps="0" timeLoss="15.11" rerouteNo="0" devices="tripinfo_right_77" vType="typeWE" vaporized=""/>
    <tripinfo id="up_73" depart="194.00" departLane="53o_0" departPos="5.10" departSpeed="0.00" departDelay="1.00" arrival="318.00" arrivalLane="54i_0" arrivalPos="10.00" arrivalSpeed="11.70" duration="124.00" routeLength="1015.10" waitSteps="19" timeLoss="48.15" rerouteNo="0" devices="tripinfo_up_73" vType="typeNS" vaporized=""/>
    <tripinfo id="down_75" depart="206.00" departLane="54o_0" departPos="5.10" departSpeed="0.00" departDelay="0.00" arrival="318.00" arrivalLane="53i_0" arrivalPos="10.00" arrivalSpeed="11.80" duration="112.00" routeLength="1015.10" waitSteps="11" timeLoss="35.93" rerouteNo="0" devices="tripinfo_down_75" vType="typeNS" vaporized=""/>
    <tripinfo id="up_76" depart="212.00" departLane="53o_0" departPos="5.10" departSpeed="0.00" departDelay="0.00" arrival="320.00" arrivalLane="54i_0" arrivalPos="10.00" arrivalSpeed="11.48" duration="108.00" routeLength="1015.10" waitSteps="6" timeLoss="32.12" rerouteNo="0" devices="tripinfo_up_76" vType="typeNS" vaporized=""/>
    <tripinfo id="down_78" depart="214.00" departLane="54o_0" departPos="5.10" departSpeed="0.00" departDelay="0.00" arrival="320.00" arrivalLane="53i_0" arrivalPos="10.00" arrivalSpeed="11.12" duration="106.00" routeLength="1015.10" waitSteps="3" timeLoss="29.95" rerouteNo="0" devices="tripinfo_down_78" vType="typeNS" vaporized=""/>
    <tripinfo id="down_81" depart="220.00" departLane="54o_0" departPos="5.10" departSpeed="0.00" departDelay="0.00" arrival="322.00" arrivalLane="53i_0" arrivalPos="10.00" arrivalSpeed="10.58" duration="102.00" routeLength="1015.10" waitSteps="0" timeLoss="25.99" rerouteNo="0" devices="tripinfo_down_81" vType="typeNS" vaporized=""/>
    <tripinfo id="left_80" depart="218.00" departLane="52o_0" departPos="5.10" departSpeed="0.00" departDelay="0.00" arrival="329.00" arrivalLane="51i_0" arrivalPos="10.00" arrivalSpeed="11.34" duration="111.00" routeLength="1015.10" waitSteps="8" timeLoss="34.43" rerouteNo="0" devices="tripinfo_left_80" vType="typeWE" vaporized=""/>
    <tripinfo id="right_79" depart="218.00" departLane="51o_0" departPos="5.10" departSpeed="0.00" departDelay="2.00" arrival="329.00" arrivalLane="52i_0" arrivalPos="10.00" arrivalSpeed="11.49" duration="111.00" routeLength="1015.10" waitSteps="8" timeLoss="35.11" rerouteNo="0" devices="tripinfo_right_79" vType="typeWE" vaporized=""/>
    <tripinfo id="left_83" depart="232.00" departLane="52o_0" departPos="5.10" departSpeed="0.00" departDelay="0.00" arrival="331.00" arrivalLane="51i_0" arrivalPos="10.00" arrivalSpeed="8.28" duration="99.00" routeLength="1015.10" waitSteps="0" timeLoss="23.04" rerouteNo="0" devices="tripinfo_left_83" vType="typeWE" vaporized=""/>
    <tripinfo id="right_82" depart="227.00" departLane="51o_0" departPos="5.10" departSpeed="0.00" departDelay="0.00" arrival="331.00" arrivalLane="52i_0" arrivalPos="10.00" arrivalSpeed="11.61" duration="104.00" routeLength="1015.10" waitSteps="0" timeLoss="28.02" rerouteNo="0" devices="tripinfo_right_82" vType="typeWE" vaporized=""/>
    <tripinfo id="right_84" depart="239.00" departLane="51o_0" departPos="5.10" departSpeed="0.00" departDelay="0.00" arrival="333.00" arrivalLane="52i_0" arrivalPos="10.00" arrivalSpeed="11.07" duration="94.00" routeLength="1015.10" waitSteps="0" timeLoss="17.88" rerouteNo="0" devices="tripinfo_right_84" vType="typeWE" vaporized=""/>
    <tripinfo id="right_87" depart="245.00" departLane="51o_0" departPos="5.10" departSpeed="0.00" departDelay="0.00" arrival="339.00" arrivalLane="52i_0" arrivalPos="10.00" arrivalSpeed="11.58" duration="94.00" routeLength="1015.10" waitSteps="0" timeLoss="17.81" rerouteNo="0" devices="tripinfo_right_87" vType="typeWE" vaporized=""/>