<?xml version="1.0" encoding="UTF-8"?>

<!-- generated on Fri 02 Dec 2016 05:58:41 PM EST by SUMO gui Version 0.25.0
<?xml version="1.0" encoding="UTF-8"?>

<configuration xmlns:xsi="http://www.w3.org/2001/XMLSchema-instance" xsi:noNamespaceSchemaLocation="http://sumo.dlr.de/xsd/sumo-gui.exeConfiguration.xsd">

    <input>
        <net-file value="data/cross.net.xml"/>
        <route-files value="data/cross.rou.xml"/>
        <additional-files value="data/cross.det.xml"/>
    </input>

    <output>
        <tripinfo-output value="tripinfo.xml"/>
        <save-state.prefix value="data/state"/>
    </output>

    <time>
        <begin value="0"/>
    </time>

    <report>
        <verbose value="true"/>
        <no-step-log value="true"/>
    </report>

    <emissions>
        <phemlight-path value="data/./PHEMlight/"/>
    </emissions>

    <traci_server>
        <remote-port value="8873"/>
    </traci_server>

</configuration>
-->

<tripinfos xmlns:xsi="http://www.w3.org/2001/XMLSchema-instance" xsi:noNamespaceSchemaLocation="http://sumo.dlr.de/xsd/tripinfo_file.xsd">
    <tripinfo id="left_0" depart="0.00" departLane="52o_0" departPos="5.10" departSpeed="0.00" departDelay="0.00" arrival="90.00" arrivalLane="51i_0" arrivalPos="10.00" arrivalSpeed="11.11" duration="90.00" routeLength="1015.10" waitSteps="0" timeLoss="13.81" rerouteNo="0" devices="tripinfo_left_0" vType="typeWE" vaporized=""/>
    <tripinfo id="right_3" depart="3.00" departLane="51o_0" departPos="5.10" departSpeed="0.00" departDelay="0.00" arrival="95.00" arrivalLane="52i_0" arrivalPos="10.00" arrivalSpeed="11.42" duration="92.00" routeLength="1015.10" waitSteps="0" timeLoss="15.40" rerouteNo="0" devices="tripinfo_right_3" vType="typeWE" vaporized=""/>
    <tripinfo id="left_2" depart="5.00" departLane="52o_0" departPos="5.10" departSpeed="0.00" departDelay="3.00" arrival="96.00" arrivalLane="51i_0" arrivalPos="10.00" arrivalSpeed="11.52" duration="91.00" routeLength="1015.10" waitSteps="0" timeLoss="15.05" rerouteNo="0" devices="tripinfo_left_2" vType="typeWE" vaporized=""/>
    <tripinfo id="up_1" depart="1.00" departLane="53o_0" departPos="5.10" departSpeed="0.00" departDelay="0.00" arrival="110.00" arrivalLane="54i_0" arrivalPos="10.00" arrivalSpeed="11.36" duration="109.00" routeLength="1015.10" waitSteps="6" timeLoss="32.87" rerouteNo="0" devices="tripinfo_up_1" vType="typeNS" vaporized=""/>
    <tripinfo id="down_5" depart="6.00" departLane="54o_0" departPos="5.10" departSpeed="0.00" departDelay="0.00" arrival="111.00" arrivalLane="53i_0" arrivalPos="10.00" arrivalSpeed="11.57" duration="105.00" routeLength="1015.10" waitSteps="3" timeLoss="28.70" rerouteNo="0" devices="tripinfo_down_5" vType="typeNS" vaporized=""/>
    <tripinfo id="up_4" depart="6.00" departLane="53o_0" departPos="5.10" departSpeed="0.00" departDelay="2.00" arrival="112.00" arrivalLane="54i_0" arrivalPos="10.00" arrivalSpeed="11.59" duration="106.00" routeLength="1015.10" waitSteps="4" timeLoss="30.12" rerouteNo="0" devices="tripinfo_up_4" vType="typeNS" vaporized=""/>
    <tripinfo id="up_6" depart="11.00" departLane="53o_0" departPos="5.10" departSpeed="0.00" departDelay="5.00" arrival="114.00" arrivalLane="54i_0" arrivalPos="10.00" arrivalSpeed="11.52" duration="103.00" routeLength="1015.10" waitSteps="1" timeLoss="27.14" rerouteNo="0" devices="tripinfo_up_6" vType="typeNS" vaporized=""/>
    <tripinfo id="right_8" depart="11.00" departLane="51o_0" departPos="5.10" departSpeed="0.00" departDelay="0.00" arrival="120.00" arrivalLane="52i_0" arrivalPos="10.00" arrivalSpeed="10.99" duration="109.00" routeLength="1015.10" waitSteps="7" timeLoss="33.02" rerouteNo="0" devices="tripinfo_right_8" vType="typeWE" vaporized=""/>
    <tripinfo id="left_7" depart="10.00" departLane="52o_0" departPos="5.10" departSpeed="0.00" departDelay="0.00" arrival="120.00" arrivalLane="51i_0" arrivalPos="10.00" arrivalSpeed="11.50" duration="110.00" routeLength="1015.10" waitSteps="9" timeLoss="33.95" rerouteNo="0" devices="tripinfo_left_7" vType="typeWE" vaporized=""/>
    <tripinfo id="left_11" depart="22.00" departLane="52o_0" departPos="5.10" departSpeed="0.00" departDelay="0.00" arrival="122.00" arrivalLane="51i_0" arrivalPos="10.00" arrivalSpeed="11.04" duration="100.00" routeLength="1015.10" waitSteps="0" timeLoss="24.12" rerouteNo="0" devices="tripinfo_left_11" vType="typeWE" vaporized=""/>
    <tripinfo id="right_10" depart="22.00" departLane="51o_0" departPos="5.10" departSpeed="0.00" departDelay="0.00" arrival="123.00" arrivalLane="52i_0" arrivalPos="10.00" arrivalSpeed="11.78" duration="101.00" routeLength="1015.10" waitSteps="0" timeLoss="24.39" rerouteNo="0" devices="tripinfo_right_10" vType="typeWE" vaporized=""/>
    <tripinfo id="right_13" depart="27.00" departLane="51o_0" departPos="5.10" departSpeed="0.00" departDelay="2.00" arrival="125.00" arrivalLane="52i_0" arrivalPos="10.00" arrivalSpeed="8.68" duration="98.00" routeLength="1015.10" waitSteps="0" timeLoss="21.99" rerouteNo="0" devices="tripinfo_right_13" vType="typeWE" vaporized=""/>
    <tripinfo id="right_14" depart="32.00" departLane="51o_0" departPos="5.10" departSpeed="0.00" departDelay="1.00" arrival="127.00" arrivalLane="52i_0" arrivalPos="10.00" arrivalSpeed="9.04" duration="95.00" routeLength="1015.10" waitSteps="0" timeLoss="18.92" rerouteNo="0" devices="tripinfo_right_14" vType="typeWE" vaporized=""/>
    <tripinfo id="right_18" depart="37.00" departLane="51o_0" departPos="5.10" departSpeed="0.00" departDelay="3.00" arrival="129.00" arrivalLane="52i_0" arrivalPos="10.00" arrivalSpeed="9.15" duration="92.00" routeLength="1015.10" waitSteps="0" timeLoss="15.89" rerouteNo="0" devices="tripinfo_right_18" vType="typeWE" vaporized=""/>
    <tripinfo id="up_9" depart="16.00" departLane="53o_0" departPos="5.10" departSpeed="0.00" departDelay="0.00" arrival="142.00" arrivalLane="54i_0" arrivalPos="10.00" arrivalSpeed="11.31" duration="126.00" routeLength="1015.10" waitSteps="19" timeLoss="50.06" rerouteNo="0" devices="tripinfo_up_9" vType="typeNS" vaporized=""/>
    <tripinfo id="down_12" depart="23.00" departLane="54o_0" departPos="5.10" departSpeed="0.00" departDelay="0.00" arrival="142.00" arrivalLane="53i_0" arrivalPos="10.00" arrivalSpeed="11.22" duration="119.00" routeLength="1015.10" waitSteps="18" timeLoss="43.18" rerouteNo="0" devices="tripinfo_down_12" vType="typeNS" vaporized=""/>
    <tripinfo id="up_16" depart="32.00" departLane="53o_0" departPos="5.10" departSpeed="0.00" departDelay="0.00" arrival="144.00" arrivalLane="54i_0" arrivalPos="10.00" arrivalSpeed="11.25" duration="112.00" routeLength="1015.10" waitSteps="10" timeLoss="36.12" rerouteNo="0" devices="tripinfo_up_16" vType="typeNS" vaporized=""/>
    <tripinfo id="down_15" depart="31.00" departLane="54o_0" departPos="5.10" departSpeed="0.00" departDelay="0.00" arrival="144.00" arrivalLane="53i_0" arrivalPos="10.00" arrivalSpeed="11.47" duration="113.00" routeLength="1015.10" waitSteps="11" timeLoss="37.12" rerouteNo="0" devices="tripinfo_down_15" vType="typeNS" vaporized=""/>
    <tripinfo id="up_22" depart="45.00" departLane="53o_0" departPos="5.10" departSpeed="0.00" departDelay="0.00" arrival="146.00" arrivalLane="54i_0" arrivalPos="10.00" arrivalSpeed="10.65" duration="101.00" routeLength="1015.10" waitSteps="0" timeLoss="24.97" rerouteNo="0" devices="tripinfo_up_22" vType="typeNS" vaporized=""/>
    <tripinfo id="down_17" depart="36.00" departLane="54o_0" departPos="5.10" departSpeed="0.00" departDelay="3.00" arrival="146.00" arrivalLane="53i_0" arrivalPos="10.00" arrivalSpeed="11.76" duration="110.00" routeLength="1015.10" waitSteps="7" timeLoss="34.07" rerouteNo="0" devices="tripinfo_down_17" vType="typeNS" vaporized=""/>
    <tripinfo id="right_19" depart="42.00" departLane="51o_0" departPos="5.10" departSpeed="0.00" departDelay="2.00" arrival="152.00" arrivalLane="52i_0" arrivalPos="10.00" arrivalSpeed="11.88" duration="110.00" routeLength="1015.10" waitSteps="8" timeLoss="33.85" rerouteNo="0" devices="tripinfo_right_19" vType="typeWE" vaporized=""/>
    <tripinfo id="left_20" depart="41.00" departLane="52o_0" departPos="5.10" departSpeed="0.00" departDelay="0.00" arrival="153.00" arrivalLane="51i_0" arrivalPos="10.00" arrivalSpeed="11.75" duration="112.00" routeLength="1015.10" waitSteps="10" timeLoss="35.51" rerouteNo="0" devices="tripinfo_left_20" vType="typeWE" vaporized=""/>
    <tripinfo id="right_21" depart="47.00" departLane="51o_0" departPos="5.10" departSpeed="0.00" departDelay="3.00" arrival="154.00" arrivalLane="52i_0" arrivalPos="10.00" arrivalSpeed="11.44" duration="107.00" routeLength="1015.10" waitSteps="5" timeLoss="31.18" rerouteNo="0" devices="tripinfo_right_21" vType="typeWE" vaporized=""/>
    <tripinfo id="left_23" depart="49.00" departLane="52o_0" departPos="5.10" departSpeed="0.00" departDelay="0.00" arrival="155.00" arrivalLane="51i_0" arrivalPos="10.00" arrivalSpeed="10.04" duration="106.00" routeLength="1015.10" waitSteps="3" timeLoss="29.99" rerouteNo="0" devices="tripinfo_left_23" vType="typeWE" vaporized=""/>
    <tripinfo id="right_25" depart="56.00" departLane="51o_0" departPos="5.10" departSpeed="0.00" departDelay="0.00" arrival="156.00" arrivalLane="52i_0" arrivalPos="10.00" arrivalSpeed="11.58" duration="100.00" routeLength="1015.10" waitSteps="0" timeLoss="24.08" rerouteNo="0" devices="tripinfo_right_25" vType="typeWE" vaporized=""/>
    <tripinfo id="right_27" depart="63.00" departLane="51o_0" departPos="5.10" departSpeed="0.00" departDelay="0.00" arrival="158.00" arrivalLane="52i_0" arrivalPos="10.00" arrivalSpeed="10.91" duration="95.00" routeLength="1015.10" waitSteps="0" timeLoss="19.06" rerouteNo="0" devices="tripinfo_right_27" vType="typeWE" vaporized=""/>
    <tripinfo id="left_29" depart="67.00" departLane="52o_0" departPos="5.10" departSpeed="0.00" departDelay="0.00" arrival="159.00" arrivalLane="51i_0" arrivalPos="10.00" arrivalSpeed="11.56" duration="92.00" routeLength="1015.10" waitSteps="0" timeLoss="15.70" rerouteNo="0" devices="tripinfo_left_29" vType="typeWE" vaporized=""/>
    <tripinfo id="right_28" depart="68.00" departLane="51o_0" departPos="5.10" departSpeed="0.00" departDelay="4.00" arrival="160.00" arrivalLane="52i_0" arrivalPos="10.00" arrivalSpeed="11.04" duration="92.00" routeLength="1015.10" waitSteps="0" timeLoss="15.75" rerouteNo="0" devices="tripinfo_right_28" vType="typeWE" vaporized=""/>
    <tripinfo id="up_24" depart="51.00" departLane="53o_0" departPos="5.10" departSpeed="0.00" departDelay="0.00" arrival="174.00" arrivalLane="54i_0" arrivalPos="10.00" arrivalSpeed="11.28" duration="123.00" routeLength="1015.10" waitSteps="19" timeLoss="47.12" rerouteNo="0" devices="tripinfo_up_24" vType="typeNS" vaporized=""/>
    <tripinfo id="down_26" depart="57.00" departLane="54o_0" departPos="5.10" departSpeed="0.00" departDelay="0.00" arrival="175.00" arrivalLane="53i_0" arrivalPos="10.00" arrivalSpeed="11.70" duration="118.00" routeLength="1015.10" waitSteps="15" timeLoss="41.44" rerouteNo="0" devices="tripinfo_down_26" vType="typeNS" vaporized=""/>
    <tripinfo id="up_30" depart="71.00" departLane="53o_0" departPos="5.10" departSpeed="0.00" departDelay="0.00" arrival="176.00" arrivalLane="54i_0" arrivalPos="10.00" arrivalSpeed="11.29" duration="105.00" routeLength="1015.10" waitSteps="4" timeLoss="29.18" rerouteNo="0" devices="tripinfo_up_30" vType="typeNS" vaporized=""/>
    <tripinfo id="down_31" depart="72.00" departLane="54o_0" departPos="5.10" departSpeed="0.00" departDelay="0.00" arrival="177.00" arrivalLane="53i_0" arrivalPos="10.00" arrivalSpeed="8.91" duration="105.00" routeLength="1015.10" waitSteps="2" timeLoss="29.00" rerouteNo="0" devices="tripinfo_down_31" vType="typeNS" vaporized=""/>
    <tripinfo id="down_33" depart="77.00" departLane="54o_0" departPos="5.10" departSpeed="0.00" departDelay="3.00" arrival="179.00" arrivalLane="53i_0" arrivalPos="10.00" arrivalSpeed="8.93" duration="102.00" routeLength="1015.10" waitSteps="0" timeLoss="26.00" rerouteNo="0" devices="tripinfo_down_33" vType="typeNS" vaporized=""/>
    <tripinfo id="down_35" depart="85.00" departLane="54o_0" departPos="5.10" departSpeed="0.00" departDelay="0.00" arrival="181.00" arrivalLane="53i_0" arrivalPos="10.00" arrivalSpeed="8.74" duration="96.00" routeLength="1015.10" waitSteps="0" timeLoss="19.96" rerouteNo="0" devices="tripinfo_down_35" vType="typeNS" vaporized=""/>
    <tripinfo id="up_37" depart="93.00" departLane="53o_0" departPos="5.10" departSpeed="0.00" departDelay="0.00" arrival="184.00" arrivalLane="54i_0" arrivalPos="10.00" arrivalSpeed="11.60" duration="91.00" routeLength="1015.10" waitSteps="0" timeLoss="14.78" rerouteNo="0" devices="tripinfo_up_37" vType="typeNS" vaporized=""/>
    <tripinfo id="down_38" depart="98.00" departLane="54o_0" departPos="5.10" departSpeed="0.00" departDelay="0.00" arrival="190.00" arrivalLane="53i_0" arrivalPos="10.00" arrivalSpeed="11.43" duration="92.00" routeLength="1015.10" waitSteps="0" timeLoss="15.25" rerouteNo="0" devices="tripinfo_down_38" vType="typeNS" vaporized=""/>
    <tripinfo id="down_39" depart="103.00" departLane="54o_0" departPos="5.10" departSpeed="0.00" departDelay="2.00" arrival="194.00" arrivalLane="53i_0" arrivalPos="10.00" arrivalSpeed="11.49" duration="91.00" routeLength="1015.10" waitSteps="0" timeLoss="14.98" rerouteNo="0" devices="tripinfo_down_39" vType="typeNS" vaporized=""/>
    <tripinfo id="up_40" depart="103.00" departLane="53o_0" departPos="5.10" departSpeed="0.00" departDelay="0.00" arrival="195.00" arrivalLane="54i_0" arrivalPos="10.00" arrivalSpeed="11.71" duration="92.00" routeLength="1015.10" waitSteps="0" timeLoss="16.08" rerouteNo="0" devices="tripinfo_up_40" vType="typeNS" vaporized=""/>
    <tripinfo id="left_32" depart="74.00" departLane="52o_0" departPos="5.10" departSpeed="0.00" departDelay="0.00" arrival="211.00" arrivalLane="51i_0" arrivalPos="10.00" arrivalSpeed="11.59" duration="137.00" routeLength="1015.10" waitSteps="35" timeLoss="61.22" rerouteNo="0" devices="tripinfo_left_32" vType="typeWE" vaporized=""/>
    <tripinfo id="right_34" depart="81.00" departLane="51o_0" departPos="5.10" departSpeed="0.00" departDelay="0.00" arrival="212.00" arrivalLane="52i_0" arrivalPos="10.00" arrivalSpeed="11.24" duration="131.00" routeLength="1015.10" waitSteps="27" timeLoss="54.91" rerouteNo="0" devices="tripinfo_right_34" vType="typeWE" vaporized=""/>
    <tripinfo id="down_52" depart="129.00" departLane="54o_0" departPos="5.10" departSpeed="0.00" departDelay="0.00" arrival="221.00" arrivalLane="53i_0" arrivalPos="10.00" arrivalSpeed="11.41" duration="92.00" routeLength="1015.10" waitSteps="0" timeLoss="15.80" rerouteNo="0" devices="tripinfo_down_52" vType="typeNS" vaporized=""/>
    <tripinfo id="up_41" depart="108.00" departLane="53o_0" departPos="5.10" departSpeed="0.00" departDelay="4.00" arrival="222.00" arrivalLane="54i_0" arrivalPos="10.00" arrivalSpeed="11.60" duration="114.00" routeLength="1015.10" waitSteps="12" timeLoss="37.49" rerouteNo="0" devices="tripinfo_up_41" vType="typeNS" vaporized=""/>
    <tripinfo id="up_42" depart="113.00" departLane="53o_0" departPos="5.10" departSpeed="0.00" departDelay="7.00" arrival="224.00" arrivalLane="54i_0" arrivalPos="10.00" arrivalSpeed="10.45" duration="111.00" routeLength="1015.10" waitSteps="8" timeLoss="35.00" rerouteNo="0" devices="tripinfo_up_42" vType="typeNS" vaporized=""/>
    <tripinfo id="up_43" depart="118.00" departLane="53o_0" departPos="5.10" departSpeed="0.00" departDelay="10.00" arrival="226.00" arrivalLane="54i_0" arrivalPos="10.00" arrivalSpeed="11.10" duration="108.00" routeLength="1015.10" waitSteps="5" timeLoss="31.98" rerouteNo="0" devices="tripinfo_up_43" vType="typeNS" vaporized=""/>
    <tripinfo id="right_36" depart="92.00" departLane="51o_0" departPos="5.10" departSpeed="0.00" departDelay="0.00" arrival="232.00" arrivalLane="52i_0" arrivalPos="10.00" arrivalSpeed="11.24" duration="140.00" routeLength="1015.10" waitSteps="33" timeLoss="63.66" rerouteNo="0" devices="tripinfo_right_36" vType="typeWE" vaporized=""/>
    <tripinfo id="left_45" depart="117.00" departLane="52o_0" departPos="5.10" departSpeed="0.00" departDelay="0.00" arrival="233.00" arrivalLane="51i_0" arrivalPos="10.00" arrivalSpeed="11.46" duration="116.00" routeLength="1015.10" waitSteps="13" timeLoss="39.34" rerouteNo="0" devices="tripinfo_left_45" vType="typeWE" vaporized=""/>
    <tripinfo id="right_44" depart="115.00" departLane="51o_0" departPos="5.10" departSpeed="0.00" departDelay="0.00" arrival="234.00" arrivalLane="52i_0" arrivalPos="10.00" arrivalSpeed="10.90" duration="119.00" routeLength="1015.10" waitSteps="14" timeLoss="42.98" rerouteNo="0" devices="tripinfo_right_44" vType="typeWE" vaporized=""/>
    <tripinfo id="left_46" depart="123.00" departLane="52o_0" departPos="5.10" departSpeed="0.00" departDelay="3.00" arrival="235.00" arrivalLane="51i_0" arrivalPos="10.00" arrivalSpeed="7.80" duration="112.00" routeLength="1015.10" waitSteps="9" timeLoss="36.01" rerouteNo="0" devices="tripinfo_left_46" vType="typeWE" vaporized=""/>
    <tripinfo id="right_49" depart="126.00" departLane="51o_0" departPos="5.10" departSpeed="0.00" departDelay="0.00" arrival="237.00" arrivalLane="52i_0" arrivalPos="10.00" arrivalSpeed="11.44" duration="111.00" routeLength="1015.10" waitSteps="6" timeLoss="34.46" rerouteNo="0" devices="tripinfo_right_49" vType="typeWE" vaporized=""/>
    <tripinfo id="left_47" depart="129.00" departLane="52o_0" departPos="5.10" departSpeed="0.00" departDelay="6.00" arrival="238.00" arrivalLane="51i_0" arrivalPos="10.00" arrivalSpeed="11.39" duration="109.00" routeLength="1015.10" waitSteps="4" timeLoss="32.43" rerouteNo="0" devices="tripinfo_left_47" vType="typeWE" vaporized=""/>
    <tripinfo id="right_50" depart="131.00" departLane="51o_0" departPos="5.10" departSpeed="0.00" departDelay="4.00" arrival="239.00" arrivalLane="52i_0" arrivalPos="10.00" arrivalSpeed="9.29" duration="108.00" routeLength="1015.10" waitSteps="5" timeLoss="31.92" rerouteNo="0" devices="tripinfo_right_50" vType="typeWE" vaporized=""/>
    <tripinfo id="left_48" depart="134.00" departLane="52o_0" departPos="5.10" departSpeed="0.00" departDelay="9.00" arrival="240.00" arrivalLane="51i_0" arrivalPos="10.00" arrivalSpeed="8.24" duration="106.00" routeLength="1015.10" waitSteps="0" timeLoss="29.95" rerouteNo="0" devices="tripinfo_left_48" vType="typeWE" vaporized=""/>
    <tripinfo id="right_53" depart="136.00" departLane="51o_0" departPos="5.10" departSpeed="0.00" departDelay="4.00" arrival="241.00" arrivalLane="52i_0" arrivalPos="10.00" arrivalSpeed="10.43" duration="105.00" routeLength="1015.10" waitSteps="1" timeLoss="28.88" rerouteNo="0" devices="tripinfo_right_53" vType="typeWE" vaporized=""/>
    <tripinfo id="left_51" depart="139.00" departLane="52o_0" departPos="5.10" departSpeed="0.00" departDelay="10.00" arrival="242.00" arrivalLane="51i_0" arrivalPos="10.00" arrivalSpeed="9.16" duration="103.00" routeLength="1015.10" waitSteps="0" timeLoss="26.88" rerouteNo="0" devices="tripinfo_left_51" vType="typeWE" vaporized=""/>
    <tripinfo id="up_54" depart="135.00" departLane="53o_0" departPos="5.10" departSpeed="0.00" departDelay="0.00" arrival="254.00" arrivalLane="54i_0" arrivalPos="10.00" arrivalSpeed="11.58" duration="119.00" routeLength="1015.10" waitSteps="16" timeLoss="43.14" rerouteNo="0" devices="tripinfo_up_54" vType="typeNS" vaporized=""/>
    <tripinfo id="down_58" depart="149.00" departLane="54o_0" departPos="5.10" departSpeed="0.00" departDelay="0.00" arrival="255.00" arrivalLane="53i_0" arrivalPos="10.00" arrivalSpeed="11.51" duration="106.00" routeLength="1015.10" waitSteps="4" timeLoss="29.53" rerouteNo="0" devices="tripinfo_down_58" vType="typeNS" vaporized=""/>
    <tripinfo id="up_56" depart="146.00" departLane="53o_0" departPos="5.10" departSpeed="0.00" departDelay="1.00" arrival="256.00" arrivalLane="54i_0" arrivalPos="10.00" arrivalSpeed="11.38" duration="110.00" routeLength="1015.10" waitSteps="7" timeLoss="34.05" rerouteNo="0" devices="tripinfo_up_56" vType="typeNS" vaporized=""/>
    <tripinfo id="down_64" depart="164.00" departLane="54o_0" departPos="5.10" departSpeed="0.00" departDelay="0.00" arrival="257.00" arrivalLane="53i_0" arrivalPos="10.00" arrivalSpeed="9.11" duration="93.00" routeLength="1015.10" waitSteps="0" timeLoss="16.74" rerouteNo="0" devices="tripinfo_down_64" vType="typeNS" vaporized=""/>
    <tripinfo id="up_62" depart="162.00" departLane="53o_0" departPos="5.10" departSpeed="0.00" departDelay="0.00" arrival="258.00" arrivalLane="54i_0" arrivalPos="10.00" arrivalSpeed="11.64" duration="96.00" routeLength="1015.10" waitSteps="0" timeLoss="20.13" rerouteNo="0" devices="tripinfo_up_62" vType="typeNS" vaporized=""/>
    <tripinfo id="left_55" depart="144.00" departLane="52o_0" departPos="5.10" departSpeed="0.00" departDelay="7.00" arrival="264.00" arrivalLane="51i_0" arrivalPos="10.00" arrivalSpeed="11.42" duration="120.00" routeLength="1015.10" waitSteps="13" timeLoss="44.12" rerouteNo="0" devices="tripinfo_left_55" vType="typeWE" vaporized=""/>
    <tripinfo id="right_59" depart="150.00" departLane="51o_0" departPos="5.10" departSpeed="0.00" departDelay="0.00" arrival="265.00" arrivalLane="52i_0" arrivalPos="10.00" arrivalSpeed="11.52" duration="115.00" routeLength="1015.10" waitSteps="12" timeLoss="38.64" rerouteNo="0" devices="tripinfo_right_59" vType="typeWE" vaporized=""/>
    <tripinfo id="left_57" depart="149.00" departLane="52o_0" departPos="5.10" departSpeed="0.00" departDelay="2.00" arrival="267.00" arrivalLane="51i_0" arrivalPos="10.00" arrivalSpeed="11.29" duration="118.00" routeLength="1015.10" waitSteps="13" timeLoss="41.77" rerouteNo="0" devices="tripinfo_left_57" vType="typeWE" vaporized=""/>
    <tripinfo id="right_60" depart="155.00" departLane="51o_0" departPos="5.10" departSpeed="0.00" departDelay="3.00" arrival="267.00" arrivalLane="52i_0" arrivalPos="10.00" arrivalSpeed="11.24" duration="112.00" routeLength="1015.10" waitSteps="9" timeLoss="35.93" rerouteNo="0" devices="tripinfo_right_60" vType="typeWE" vaporized=""/>
    <tripinfo id="left_61" depart="160.00" departLane="52o_0" departPos="5.10" departSpeed="0.00" departDelay="1.00" arrival="269.00" arrivalLane="51i_0" arrivalPos="10.00" arrivalSpeed="10.01" duration="109.00" routeLength="1015.10" waitSteps="5" timeLoss="32.99" rerouteNo="0" devices="tripinfo_left_61" vType="typeWE" vaporized=""/>
    <tripinfo id="right_63" depart="164.00" departLane="51o_0" departPos="5.10" departSpeed="0.00" departDelay="0.00" arrival="269.00" arrivalLane="52i_0" arrivalPos="10.00" arrivalSpeed="10.49" duration="105.00" routeLength="1015.10" waitSteps="0" timeLoss="29.00" rerouteNo="0" devices="tripinfo_right_63" vType="typeWE" vaporized=""/>
    <tripinfo id="right_66" depart="171.00" departLane="51o_0" departPos="5.10" departSpeed="0.00" departDelay="0.00" arrival="271.00" arrivalLane="52i_0" arrivalPos="10.00" arrivalSpeed="10.43" duration="100.00" routeLength="1015.10" waitSteps="0" timeLoss="23.86" rerouteNo="0" devices="tripinfo_right_66" vType="typeWE" vaporized=""/>
    <tripinfo id="right_69" depart="179.00" departLane="51o_0" departPos="5.10" departSpeed="0.00" departDelay="0.00" arrival="273.00" arrivalLane="52i_0" arrivalPos="10.00" arrivalSpeed="9.66" duration="94.00" routeLength="1015.10" waitSteps="0" timeLoss="17.89" rerouteNo="0" devices="tripinfo_right_69" vType="typeWE" vaporized=""/>
    <tripinfo id="up_65" depart="170.00" departLane="53o_0" departPos="5.10" departSpeed="0.00" departDelay="0.00" arrival="287.00" arrivalLane="54i_0" arrivalPos="10.00" arrivalSpeed="11.44" duration="117.00" routeLength="1015.10" waitSteps="13" timeLoss="40.55" rerouteNo="0" devices="tripinfo_up_65" vType="typeNS" vaporized=""/>
    <tripinfo id="up_67" depart="177.00" departLane="53o_0" departPos="5.10" departSpeed="0.00" departDelay="2.00" arrival="289.00" arrivalLane="54i_0" arrivalPos="10.00" arrivalSpeed="8.46" duration="112.00" routeLength="1015.10" waitSteps="10" timeLoss="36.03" rerouteNo="0" devices="tripinfo_up_67" vType="typeNS" vaporized=""/>
    <tripinfo id="up_68" depart="182.00" departLane="53o_0" departPos="5.10" departSpeed="0.00" departDelay="4.00" arrival="291.00" arrivalLane="54i_0" arrivalPos="10.00" arrivalSpeed="9.28" duration="109.00" routeLength="1015.10" waitSteps="5" timeLoss="32.95" rerouteNo="0" devices="tripinfo_up_68" vType="typeNS" vaporized=""/>
    <tripinfo id="right_70" depart="184.00" departLane="51o_0" departPos="5.10" departSpeed="0.00" departDelay="4.00" arrival="295.00" arrivalLane="52i_0" arrivalPos="10.00" arrivalSpeed="10.87" duration="111.00" routeLength="1015.10" waitSteps="11" timeLoss="35.05" rerouteNo="0" devices="tripinfo_right_70" vType="typeWE" vaporized=""/>
    <tripinfo id="left_72" depart="184.00" departLane="52o_0" departPos="5.10" departSpeed="0.00" departDelay="0.00" arrival="296.00" arrivalLane="51i_0" arrivalPos="10.00" arrivalSpeed="11.42" duration="112.00" routeLength="1015.10" waitSteps="11" timeLoss="35.67" rerouteNo="0" devices="tripinfo_left_72" vType="typeWE" vaporized=""/>
    <tripinfo id="left_74" depart="204.00" departLane="52o_0" departPos="5.10" departSpeed="0.00" departDelay="0.00" arrival="298.00" arrivalLane="51i_0" arrivalPos="10.00" arrivalSpeed="8.75" duration="94.00" routeLength="1015.10" waitSteps="0" timeLoss="18.01" rerouteNo="0" devices="tripinfo_left_74" vType="typeWE" vaporized=""/>
    <tripinfo id="right_71" depart="189.00" departLane="51o_0" departPos="5.10" departSpeed="0.00" departDelay="7.00" arrival="298.00" arrivalLane="52i_0" arrivalPos="10.00" arrivalSpeed="11.56" duration="109.00" routeLength="1015.10" waitSteps="6" timeLoss="32.70" rerouteNo="0" devices="tripinfo_right_71" vType="typeWE" vaporized=""/>
    <tripinfo id="right_77" depart="213.00" departLane="51o_0" departPos="5.10" departSpeed="0.00" departDelay="0.00" arrival="304.00" arrivalLane="52i_0" arrivalPos="10.00" arrivalSpeed="11.50" duration="91.00" routeLength="1015.10" waitSteps="0" timeLoss="14.19" rerouteNo="0" devices="tripinfo_right_77" vType="typeWE" vaporized=""/>
    <tripinfo id="down_75" depart="206.00" departLane="54o_0" departPos="5.10" departSpeed="0.00" departDelay="0.00" arrival="318.00" arrivalLane="53i_0" arrivalPos="10.00" arrivalSpeed="11.54" duration="112.00" routeLength="1015.10" waitSteps="9" timeLoss="35.81" rerouteNo="0" devices="tripinfo_down_75" vType="typeNS" vaporized=""/>
    <tripinfo id="up_73" depart="194.00" departLane="53o_0" departPos="5.10" departSpeed="0.00" departDelay="1.00" arrival="320.00" arrivalLane="54i_0" arrivalPos="10.00" arrivalSpeed="11.37" duration="126.00" routeLength="1015.10" waitSteps="19" timeLoss="49.50" rerouteNo="0" devices="tripinfo_up_73" vType="typeNS" vaporized=""/>
    <tripinfo id="down_78" depart="214.00" departLane="54o_0" departPos="5.10" departSpeed="0.00" departDelay="0.00" arrival="320.00" arrivalLane="53i_0" arrivalPos="10.00" arrivalSpeed="10.33" duration="106.00" routeLength="1015.10" waitSteps="4" timeLoss="29.94" rerouteNo="0" devices="tripinfo_down_78" vType="typeNS" vaporized=""/>
    <tripinfo id="up_76" depart="212.00" departLane="53o_0" departPos="5.10" departSpeed="0.00" departDelay="0.00" arrival="322.00" arrivalLane="54i_0" arrivalPos="10.00" arrivalSpeed="8.89" duration="110.00" routeLength="1015.10" waitSteps="6" timeLoss="33.93" rerouteNo="0" devices="tripinfo_up_76" vType="typeNS" vaporized=""/>
    <tripinfo id="down_81" depart="222.00" departLane="54o_0" departPos="5.10" departSpeed="0.00" departDelay="2.00" arrival="322.00" arrivalLane="53i_0" arrivalPos="10.00" arrivalSpeed="11.36" duration="100.00" routeLength="1015.10" waitSteps="0" timeLoss="23.94" rerouteNo="0" devices="tripinfo_down_81" vType="typeNS" vaporized=""/>
    <tripinfo id="left_80" depart="218.00" departLane="52o_0" departPos="5.10" departSpeed="0.00" departDelay="0.00" arrival="329.00" arrivalLane="51i_0" arrivalPos="10.00" arrivalSpeed="11.69" duration="111.00" routeLength="1015.10" waitSteps="8" timeLoss="34.46" rerouteNo="0" devices="tripinfo_left_80" vType="typeWE" vaporized=""/>
    <tripinfo id="right_79" depart="217.00" departLane="51o_0" departPos="5.10" departSpeed="0.00" departDelay="1.00" arrival="329.00" arrivalLane="52i_0" arrivalPos="10.00" arrivalSpeed="11.54" duration="112.00" routeLength="1015.10" waitSteps="7" timeLoss="35.30" rerouteNo="0" devices="tripinfo_right_79" vType="typeWE" vaporized=""/>
    <tripinfo id="left_83" depart="232.00" departLane="52o_0" departPos="5.10" departSpeed="0.00" departDelay="0.00" arrival="331.00" arrivalLane="51i_0" arrivalPos="10.00" arrivalSpeed="8.75" duration="99.00" routeLength="1015.10" waitSteps="0" timeLoss="23.05" rerouteNo="0" devices="tripinfo_left_83" vType="typeWE" vaporized=""/>
    <tripinfo id="right_82" depart="227.00" departLane="51o_0" departPos="5.10" departSpeed="0.00" departDelay="0.00" arrival="331.00" arrivalLane="52i_0" arrivalPos="10.00" arrivalSpeed="10.45" duration="104.00" routeLength="1015.10" waitSteps="2" timeLoss="27.98" rerouteNo="0" devices="tripinfo_right_82" vType="typeWE" vaporized=""/>
    <tripinfo id="right_84" depart="240.00" departLane="51o_0" departPos="5.10" departSpeed="0.00" departDelay="1.00" arrival="333.00" arrivalLane="52i_0" arrivalPos="10.00" arrivalSpeed="10.08" duration="93.00" routeLength="1015.10" waitSteps="0" timeLoss="16.96" rerouteNo="0" devices="tripinfo_right_84" vType="typeWE" vaporized=""/>
    <tripinfo id="right_87" depart="245.00" departLane="51o_0" departPos="5.10" departSpeed="0.00" departDelay="0.00" arrival="338.00" arrivalLane="52i_0" arrivalPos="10.00" arrivalSpeed="11.45" duration="93.00" routeLength="1015.10" waitSteps="0" timeLoss="16.86" rerouteNo="0" devices="tripinfo_right_87" vType="typeWE" vaporized=""/>