<?xml version="1.0" encoding="UTF-8"?>

<!-- generated on 12/2/2016 5:57:13 PM by SUMO gui Version 0.28.0
<?xml version="1.0" encoding="UTF-8"?>

<configuration xmlns:xsi="http://www.w3.org/2001/XMLSchema-instance" xsi:noNamespaceSchemaLocation="http://sumo.dlr.de/xsd/sumo-gui.exeConfiguration.xsd">

    <input>
        <net-file value="data/cross.net.xml"/>
        <route-files value="data/cross.rou.xml"/>
        <additional-files value="data/cross.det.xml"/>
    </input>

    <output>
        <tripinfo-output value="tripinfo.xml"/>
    </output>

    <time>
        <begin value="0"/>
    </time>

    <report>
        <verbose value="true"/>
        <no-step-log value="true"/>
    </report>

    <traci_server>
        <remote-port value="8873"/>
    </traci_server>

</configuration>
-->

<tripinfos xmlns:xsi="http://www.w3.org/2001/XMLSchema-instance" xsi:noNamespaceSchemaLocation="http://sumo.dlr.de/xsd/tripinfo_file.xsd">
    <tripinfo id="left_0" depart="0.00" departLane="52o_0" departPos="5.10" departSpeed="0.00" departDelay="0.00" arrival="91.00" arrivalLane="51i_0" arrivalPos="10.00" arrivalSpeed="11.57" duration="91.00" routeLength="1015.10" waitSteps="0" timeLoss="14.91" rerouteNo="0" devices="tripinfo_left_0" vType="typeWE" vaporized=""/>
    <tripinfo id="right_2" depart="3.00" departLane="51o_0" departPos="5.10" departSpeed="0.00" departDelay="0.00" arrival="94.00" arrivalLane="52i_0" arrivalPos="10.00" arrivalSpeed="11.42" duration="91.00" routeLength="1015.10" waitSteps="0" timeLoss="14.93" rerouteNo="0" devices="tripinfo_right_2" vType="typeWE" vaporized=""/>
    <tripinfo id="left_1" depart="5.00" departLane="52o_0" departPos="5.10" departSpeed="0.00" departDelay="3.00" arrival="97.00" arrivalLane="51i_0" arrivalPos="10.00" arrivalSpeed="11.54" duration="92.00" routeLength="1015.10" waitSteps="0" timeLoss="15.33" rerouteNo="0" devices="tripinfo_left_1" vType="typeWE" vaporized=""/>
    <tripinfo id="left_4" depart="10.00" departLane="52o_0" departPos="5.10" departSpeed="0.00" departDelay="0.00" arrival="102.00" arrivalLane="51i_0" arrivalPos="10.00" arrivalSpeed="11.66" duration="92.00" routeLength="1015.10" waitSteps="0" timeLoss="15.34" rerouteNo="0" devices="tripinfo_left_4" vType="typeWE" vaporized=""/>
    <tripinfo id="right_5" depart="11.00" departLane="51o_0" departPos="5.10" departSpeed="0.00" departDelay="0.00" arrival="102.00" arrivalLane="52i_0" arrivalPos="10.00" arrivalSpeed="11.70" duration="91.00" routeLength="1015.10" waitSteps="0" timeLoss="14.72" rerouteNo="0" devices="tripinfo_right_5" vType="typeWE" vaporized=""/>
    <tripinfo id="right_7" depart="22.00" departLane="51o_0" departPos="5.10" departSpeed="0.00" departDelay="0.00" arrival="116.00" arrivalLane="52i_0" arrivalPos="10.00" arrivalSpeed="11.44" duration="94.00" routeLength="1015.10" waitSteps="0" timeLoss="17.28" rerouteNo="0" devices="tripinfo_right_7" vType="typeWE" vaporized=""/>
    <tripinfo id="up_3" depart="4.00" departLane="53o_0" departPos="5.10" departSpeed="0.00" departDelay="0.00" arrival="118.00" arrivalLane="54i_0" arrivalPos="10.00" arrivalSpeed="11.46" duration="114.00" routeLength="1015.10" waitSteps="12" timeLoss="37.47" rerouteNo="0" devices="tripinfo_up_3" vType="typeNS" vaporized=""/>
    <tripinfo id="left_8" depart="22.00" departLane="52o_0" departPos="5.10" departSpeed="0.00" departDelay="0.00" arrival="121.00" arrivalLane="51i_0" arrivalPos="10.00" arrivalSpeed="10.89" duration="99.00" routeLength="1015.10" waitSteps="0" timeLoss="23.02" rerouteNo="0" devices="tripinfo_left_8" vType="typeWE" vaporized=""/>
    <tripinfo id="up_6" depart="16.00" departLane="53o_0" departPos="5.10" departSpeed="0.00" departDelay="0.00" arrival="128.00" arrivalLane="54i_0" arrivalPos="10.00" arrivalSpeed="11.59" duration="112.00" routeLength="1015.10" waitSteps="4" timeLoss="36.04" rerouteNo="0" devices="tripinfo_up_6" vType="typeNS" vaporized=""/>
    <tripinfo id="down_9" depart="23.00" departLane="54o_0" departPos="5.10" departSpeed="0.00" departDelay="0.00" arrival="129.00" arrivalLane="53i_0" arrivalPos="10.00" arrivalSpeed="11.44" duration="106.00" routeLength="1015.10" waitSteps="7" timeLoss="29.86" rerouteNo="0" devices="tripinfo_down_9" vType="typeNS" vaporized=""/>
    <tripinfo id="left_16" depart="41.00" departLane="52o_0" departPos="5.10" departSpeed="0.00" departDelay="0.00" arrival="131.00" arrivalLane="51i_0" arrivalPos="10.00" arrivalSpeed="11.81" duration="90.00" routeLength="1015.10" waitSteps="0" timeLoss="14.06" rerouteNo="0" devices="tripinfo_left_16" vType="typeWE" vaporized=""/>
    <tripinfo id="right_10" depart="27.00" departLane="51o_0" departPos="5.10" departSpeed="0.00" departDelay="2.00" arrival="135.00" arrivalLane="52i_0" arrivalPos="10.00" arrivalSpeed="11.82" duration="108.00" routeLength="1015.10" waitSteps="4" timeLoss="31.80" rerouteNo="0" devices="tripinfo_right_10" vType="typeWE" vaporized=""/>
    <tripinfo id="right_11" depart="32.00" departLane="51o_0" departPos="5.10" departSpeed="0.00" departDelay="1.00" arrival="138.00" arrivalLane="52i_0" arrivalPos="10.00" arrivalSpeed="11.12" duration="106.00" routeLength="1015.10" waitSteps="0" timeLoss="29.42" rerouteNo="0" devices="tripinfo_right_11" vType="typeWE" vaporized=""/>
    <tripinfo id="right_14" depart="38.00" departLane="51o_0" departPos="5.10" departSpeed="0.00" departDelay="4.00" arrival="140.00" arrivalLane="52i_0" arrivalPos="10.00" arrivalSpeed="8.22" duration="102.00" routeLength="1015.10" waitSteps="0" timeLoss="26.02" rerouteNo="0" devices="tripinfo_right_14" vType="typeWE" vaporized=""/>
    <tripinfo id="left_18" depart="49.00" departLane="52o_0" departPos="5.10" departSpeed="0.00" departDelay="0.00" arrival="141.00" arrivalLane="51i_0" arrivalPos="10.00" arrivalSpeed="11.36" duration="92.00" routeLength="1015.10" waitSteps="0" timeLoss="15.81" rerouteNo="0" devices="tripinfo_left_18" vType="typeWE" vaporized=""/>
    <tripinfo id="right_15" depart="43.00" departLane="51o_0" departPos="5.10" departSpeed="0.00" departDelay="3.00" arrival="144.00" arrivalLane="52i_0" arrivalPos="10.00" arrivalSpeed="11.73" duration="101.00" routeLength="1015.10" waitSteps="0" timeLoss="24.83" rerouteNo="0" devices="tripinfo_right_15" vType="typeWE" vaporized=""/>
    <tripinfo id="right_17" depart="48.00" departLane="51o_0" departPos="5.10" departSpeed="0.00" departDelay="4.00" arrival="146.00" arrivalLane="52i_0" arrivalPos="10.00" arrivalSpeed="10.86" duration="98.00" routeLength="1015.10" waitSteps="0" timeLoss="21.96" rerouteNo="0" devices="tripinfo_right_17" vType="typeWE" vaporized=""/>
    <tripinfo id="right_20" depart="56.00" departLane="51o_0" departPos="5.10" departSpeed="0.00" departDelay="0.00" arrival="148.00" arrivalLane="52i_0" arrivalPos="10.00" arrivalSpeed="10.37" duration="92.00" routeLength="1015.10" waitSteps="0" timeLoss="15.89" rerouteNo="0" devices="tripinfo_right_20" vType="typeWE" vaporized=""/>
    <tripinfo id="right_21" depart="63.00" departLane="51o_0" departPos="5.10" departSpeed="0.00" departDelay="0.00" arrival="154.00" arrivalLane="52i_0" arrivalPos="10.00" arrivalSpeed="11.41" duration="91.00" routeLength="1015.10" waitSteps="0" timeLoss="14.74" rerouteNo="0" devices="tripinfo_right_21" vType="typeWE" vaporized=""/>
    <tripinfo id="left_23" depart="67.00" departLane="52o_0" departPos="5.10" departSpeed="0.00" departDelay="0.00" arrival="160.00" arrivalLane="51i_0" arrivalPos="10.00" arrivalSpeed="11.01" duration="93.00" routeLength="1015.10" waitSteps="0" timeLoss="16.94" rerouteNo="0" devices="tripinfo_left_23" vType="typeWE" vaporized=""/>
    <tripinfo id="right_22" depart="68.00" departLane="51o_0" departPos="5.10" departSpeed="0.00" departDelay="4.00" arrival="160.00" arrivalLane="52i_0" arrivalPos="10.00" arrivalSpeed="11.59" duration="92.00" routeLength="1015.10" waitSteps="0" timeLoss="16.07" rerouteNo="0" devices="tripinfo_right_22" vType="typeWE" vaporized=""/>
    <tripinfo id="left_25" depart="74.00" departLane="52o_0" departPos="5.10" departSpeed="0.00" departDelay="0.00" arrival="168.00" arrivalLane="51i_0" arrivalPos="10.00" arrivalSpeed="11.81" duration="94.00" routeLength="1015.10" waitSteps="0" timeLoss="17.28" rerouteNo="0" devices="tripinfo_left_25" vType="typeWE" vaporized=""/>
    <tripinfo id="down_12" depart="31.00" departLane="54o_0" departPos="5.10" departSpeed="0.00" departDelay="0.00" arrival="182.00" arrivalLane="53i_0" arrivalPos="10.00" arrivalSpeed="11.34" duration="151.00" routeLength="1015.10" waitSteps="47" timeLoss="75.13" rerouteNo="0" devices="tripinfo_down_12" vType="typeNS" vaporized=""/>
    <tripinfo id="up_13" depart="32.00" departLane="53o_0" departPos="5.10" departSpeed="0.00" departDelay="0.00" arrival="183.00" arrivalLane="54i_0" arrivalPos="10.00" arrivalSpeed="11.33" duration="151.00" routeLength="1015.10" waitSteps="48" timeLoss="74.50" rerouteNo="0" devices="tripinfo_up_13" vType="typeNS" vaporized=""/>
    <tripinfo id="right_26" depart="81.00" departLane="51o_0" departPos="5.10" departSpeed="0.00" departDelay="0.00" arrival="190.00" arrivalLane="52i_0" arrivalPos="10.00" arrivalSpeed="11.60" duration="109.00" routeLength="1015.10" waitSteps="7" timeLoss="33.07" rerouteNo="0" devices="tripinfo_right_26" vType="typeWE" vaporized=""/>
    <tripinfo id="up_19" depart="51.00" departLane="53o_0" departPos="5.10" departSpeed="0.00" departDelay="0.00" arrival="200.00" arrivalLane="54i_0" arrivalPos="10.00" arrivalSpeed="11.43" duration="149.00" routeLength="1015.10" waitSteps="43" timeLoss="73.01" rerouteNo="0" devices="tripinfo_up_19" vType="typeNS" vaporized=""/>
    <tripinfo id="down_24" depart="72.00" departLane="54o_0" departPos="5.10" departSpeed="0.00" departDelay="0.00" arrival="201.00" arrivalLane="53i_0" arrivalPos="10.00" arrivalSpeed="11.50" duration="129.00" routeLength="1015.10" waitSteps="21" timeLoss="52.58" rerouteNo="0" devices="tripinfo_down_24" vType="typeNS" vaporized=""/>
    <tripinfo id="up_29" depart="93.00" departLane="53o_0" departPos="5.10" departSpeed="0.00" departDelay="0.00" arrival="203.00" arrivalLane="54i_0" arrivalPos="10.00" arrivalSpeed="11.65" duration="110.00" routeLength="1015.10" waitSteps="6" timeLoss="33.89" rerouteNo="0" devices="tripinfo_up_29" vType="typeNS" vaporized=""/>
    <tripinfo id="down_27" depart="85.00" departLane="54o_0" departPos="5.10" departSpeed="0.00" departDelay="0.00" arrival="203.00" arrivalLane="53i_0" arrivalPos="10.00" arrivalSpeed="10.97" duration="118.00" routeLength="1015.10" waitSteps="10" timeLoss="41.97" rerouteNo="0" devices="tripinfo_down_27" vType="typeNS" vaporized=""/>
    <tripinfo id="up_31" depart="103.00" departLane="53o_0" departPos="5.10" departSpeed="0.00" departDelay="0.00" arrival="205.00" arrivalLane="54i_0" arrivalPos="10.00" arrivalSpeed="11.52" duration="102.00" routeLength="1015.10" waitSteps="0" timeLoss="26.14" rerouteNo="0" devices="tripinfo_up_31" vType="typeNS" vaporized=""/>
    <tripinfo id="down_30" depart="98.00" departLane="54o_0" departPos="5.10" departSpeed="0.00" departDelay="0.00" arrival="205.00" arrivalLane="53i_0" arrivalPos="10.00" arrivalSpeed="10.74" duration="107.00" routeLength="1015.10" waitSteps="3" timeLoss="31.12" rerouteNo="0" devices="tripinfo_down_30" vType="typeNS" vaporized=""/>
    <tripinfo id="left_35" depart="117.00" departLane="52o_0" departPos="5.10" departSpeed="0.00" departDelay="0.00" arrival="207.00" arrivalLane="51i_0" arrivalPos="10.00" arrivalSpeed="11.51" duration="90.00" routeLength="1015.10" waitSteps="0" timeLoss="14.04" rerouteNo="0" devices="tripinfo_left_35" vType="typeWE" vaporized=""/>
    <tripinfo id="left_36" depart="122.00" departLane="52o_0" departPos="5.10" departSpeed="0.00" departDelay="2.00" arrival="213.00" arrivalLane="51i_0" arrivalPos="10.00" arrivalSpeed="11.26" duration="91.00" routeLength="1015.10" waitSteps="0" timeLoss="14.81" rerouteNo="0" devices="tripinfo_left_36" vType="typeWE" vaporized=""/>
    <tripinfo id="right_28" depart="92.00" departLane="51o_0" departPos="5.10" departSpeed="0.00" departDelay="0.00" arrival="214.00" arrivalLane="52i_0" arrivalPos="10.00" arrivalSpeed="11.52" duration="122.00" routeLength="1015.10" waitSteps="17" timeLoss="45.97" rerouteNo="0" devices="tripinfo_right_28" vType="typeWE" vaporized=""/>
    <tripinfo id="right_34" depart="115.00" departLane="51o_0" departPos="5.10" departSpeed="0.00" departDelay="0.00" arrival="216.00" arrivalLane="52i_0" arrivalPos="10.00" arrivalSpeed="11.17" duration="101.00" routeLength="1015.10" waitSteps="0" timeLoss="25.14" rerouteNo="0" devices="tripinfo_right_34" vType="typeWE" vaporized=""/>
    <tripinfo id="left_37" depart="127.00" departLane="52o_0" departPos="5.10" departSpeed="0.00" departDelay="4.00" arrival="219.00" arrivalLane="51i_0" arrivalPos="10.00" arrivalSpeed="11.55" duration="92.00" routeLength="1015.10" waitSteps="0" timeLoss="15.83" rerouteNo="0" devices="tripinfo_left_37" vType="typeWE" vaporized=""/>
    <tripinfo id="right_39" depart="126.00" departLane="51o_0" departPos="5.10" departSpeed="0.00" departDelay="0.00" arrival="219.00" arrivalLane="52i_0" arrivalPos="10.00" arrivalSpeed="11.26" duration="93.00" routeLength="1015.10" waitSteps="0" timeLoss="16.30" rerouteNo="0" devices="tripinfo_right_39" vType="typeWE" vaporized=""/>
    <tripinfo id="left_38" depart="132.00" departLane="52o_0" departPos="5.10" departSpeed="0.00" departDelay="7.00" arrival="224.00" arrivalLane="51i_0" arrivalPos="10.00" arrivalSpeed="11.61" duration="92.00" routeLength="1015.10" waitSteps="0" timeLoss="15.26" rerouteNo="0" devices="tripinfo_left_38" vType="typeWE" vaporized=""/>
    <tripinfo id="right_40" depart="132.00" departLane="51o_0" departPos="5.10" departSpeed="0.00" departDelay="5.00" arrival="224.00" arrivalLane="52i_0" arrivalPos="10.00" arrivalSpeed="11.77" duration="92.00" routeLength="1015.10" waitSteps="0" timeLoss="15.17" rerouteNo="0" devices="tripinfo_right_40" vType="typeWE" vaporized=""/>
    <tripinfo id="right_43" depart="137.00" departLane="51o_0" departPos="5.10" departSpeed="0.00" departDelay="5.00" arrival="228.00" arrivalLane="52i_0" arrivalPos="10.00" arrivalSpeed="11.53" duration="91.00" routeLength="1015.10" waitSteps="0" timeLoss="14.78" rerouteNo="0" devices="tripinfo_right_43" vType="typeWE" vaporized=""/>
    <tripinfo id="left_41" depart="138.00" departLane="52o_0" departPos="5.10" departSpeed="0.00" departDelay="9.00" arrival="231.00" arrivalLane="51i_0" arrivalPos="10.00" arrivalSpeed="11.54" duration="93.00" routeLength="1015.10" waitSteps="0" timeLoss="16.51" rerouteNo="0" devices="tripinfo_left_41" vType="typeWE" vaporized=""/>
    <tripinfo id="right_48" depart="150.00" departLane="51o_0" departPos="5.10" departSpeed="0.00" departDelay="0.00" arrival="241.00" arrivalLane="52i_0" arrivalPos="10.00" arrivalSpeed="11.70" duration="91.00" routeLength="1015.10" waitSteps="0" timeLoss="14.36" rerouteNo="0" devices="tripinfo_right_48" vType="typeWE" vaporized=""/>
    <tripinfo id="right_49" depart="155.00" departLane="51o_0" departPos="5.10" departSpeed="0.00" departDelay="3.00" arrival="245.00" arrivalLane="52i_0" arrivalPos="10.00" arrivalSpeed="11.43" duration="90.00" routeLength="1015.10" waitSteps="0" timeLoss="14.06" rerouteNo="0" devices="tripinfo_right_49" vType="typeWE" vaporized=""/>
    <tripinfo id="left_45" depart="144.00" departLane="52o_0" departPos="5.10" departSpeed="0.00" departDelay="7.00" arrival="248.00" arrivalLane="51i_0" arrivalPos="10.00" arrivalSpeed="11.34" duration="104.00" routeLength="1015.10" waitSteps="2" timeLoss="28.01" rerouteNo="0" devices="tripinfo_left_45" vType="typeWE" vaporized=""/>
    <tripinfo id="left_46" depart="149.00" departLane="52o_0" departPos="5.10" departSpeed="0.00" departDelay="2.00" arrival="250.00" arrivalLane="51i_0" arrivalPos="10.00" arrivalSpeed="11.11" duration="101.00" routeLength="1015.10" waitSteps="0" timeLoss="24.99" rerouteNo="0" devices="tripinfo_left_46" vType="typeWE" vaporized=""/>
    <tripinfo id="up_32" depart="108.00" departLane="53o_0" departPos="5.10" departSpeed="0.00" departDelay="2.00" arrival="262.00" arrivalLane="54i_0" arrivalPos="10.00" arrivalSpeed="11.70" duration="154.00" routeLength="1015.10" waitSteps="48" timeLoss="77.73" rerouteNo="0" devices="tripinfo_up_32" vType="typeNS" vaporized=""/>
    <tripinfo id="down_42" depart="129.00" departLane="54o_0" departPos="5.10" departSpeed="0.00" departDelay="0.00" arrival="262.00" arrivalLane="53i_0" arrivalPos="10.00" arrivalSpeed="11.64" duration="133.00" routeLength="1015.10" waitSteps="31" timeLoss="56.48" rerouteNo="0" devices="tripinfo_down_42" vType="typeNS" vaporized=""/>
    <tripinfo id="left_50" depart="160.00" departLane="52o_0" departPos="5.10" departSpeed="0.00" departDelay="1.00" arrival="268.00" arrivalLane="51i_0" arrivalPos="10.00" arrivalSpeed="10.84" duration="108.00" routeLength="1015.10" waitSteps="6" timeLoss="32.01" rerouteNo="0" devices="tripinfo_left_50" vType="typeWE" vaporized=""/>
    <tripinfo id="right_52" depart="164.00" departLane="51o_0" departPos="5.10" departSpeed="0.00" departDelay="0.00" arrival="268.00" arrivalLane="52i_0" arrivalPos="10.00" arrivalSpeed="11.35" duration="104.00" routeLength="1015.10" waitSteps="2" timeLoss="28.03" rerouteNo="0" devices="tripinfo_right_52" vType="typeWE" vaporized=""/>
    <tripinfo id="left_58" depart="184.00" departLane="52o_0" departPos="5.10" departSpeed="0.00" departDelay="0.00" arrival="277.00" arrivalLane="51i_0" arrivalPos="10.00" arrivalSpeed="11.47" duration="93.00" routeLength="1015.10" waitSteps="0" timeLoss="17.05" rerouteNo="0" devices="tripinfo_left_58" vType="typeWE" vaporized=""/>
    <tripinfo id="right_54" depart="171.00" departLane="51o_0" departPos="5.10" departSpeed="0.00" departDelay="0.00" arrival="280.00" arrivalLane="52i_0" arrivalPos="10.00" arrivalSpeed="11.06" duration="109.00" routeLength="1015.10" waitSteps="5" timeLoss="33.01" rerouteNo="0" devices="tripinfo_right_54" vType="typeWE" vaporized=""/>
    <tripinfo id="right_55" depart="179.00" departLane="51o_0" departPos="5.10" departSpeed="0.00" departDelay="0.00" arrival="283.00" arrivalLane="52i_0" arrivalPos="10.00" arrivalSpeed="11.84" duration="104.00" routeLength="1015.10" waitSteps="0" timeLoss="27.72" rerouteNo="0" devices="tripinfo_right_55" vType="typeWE" vaporized=""/>
    <tripinfo id="right_56" depart="184.00" departLane="51o_0" departPos="5.10" departSpeed="0.00" departDelay="4.00" arrival="285.00" arrivalLane="52i_0" arrivalPos="10.00" arrivalSpeed="10.28" duration="101.00" routeLength="1015.10" waitSteps="0" timeLoss="25.00" rerouteNo="0" devices="tripinfo_right_56" vType="typeWE" vaporized=""/>
    <tripinfo id="left_59" depart="204.00" departLane="52o_0" departPos="5.10" departSpeed="0.00" departDelay="0.00" arrival="297.00" arrivalLane="51i_0" arrivalPos="10.00" arrivalSpeed="11.54" duration="93.00" routeLength="1015.10" waitSteps="0" timeLoss="16.83" rerouteNo="0" devices="tripinfo_left_59" vType="typeWE" vaporized=""/>
    <tripinfo id="up_33" depart="113.00" departLane="53o_0" departPos="5.10" departSpeed="0.00" departDelay="5.00" arrival="297.00" arrivalLane="54i_0" arrivalPos="10.00" arrivalSpeed="11.58" duration="184.00" routeLength="1015.10" waitSteps="72" timeLoss="108.22" rerouteNo="0" devices="tripinfo_up_33" vType="typeNS" vaporized=""/>
    <tripinfo id="down_47" depart="149.00" departLane="54o_0" departPos="5.10" departSpeed="0.00" departDelay="0.00" arrival="298.00" arrivalLane="53i_0" arrivalPos="10.00" arrivalSpeed="11.67" duration="149.00" routeLength="1015.10" waitSteps="39" timeLoss="72.81" rerouteNo="0" devices="tripinfo_down_47" vType="typeNS" vaporized=""/>
    <tripinfo id="right_57" depart="189.00" departLane="51o_0" departPos="5.10" departSpeed="0.00" departDelay="7.00" arrival="304.00" arrivalLane="52i_0" arrivalPos="10.00" arrivalSpeed="11.63" duration="115.00" routeLength="1015.10" waitSteps="11" timeLoss="39.20" rerouteNo="0" devices="tripinfo_right_57" vType="typeWE" vaporized=""/>
    <tripinfo id="down_53" depart="164.00" departLane="54o_0" departPos="5.10" departSpeed="0.00" departDelay="0.00" arrival="314.00" arrivalLane="53i_0" arrivalPos="10.00" arrivalSpeed="11.29" duration="150.00" routeLength="1015.10" waitSteps="37" timeLoss="73.90" rerouteNo="0" devices="tripinfo_down_53" vType="typeNS" vaporized=""/>
    <tripinfo id="up_44" depart="135.00" departLane="53o_0" departPos="5.10" departSpeed="0.00" departDelay="0.00" arrival="315.00" arrivalLane="54i_0" arrivalPos="10.00" arrivalSpeed="11.88" duration="180.00" routeLength="1015.10" waitSteps="63" timeLoss="103.42" rerouteNo="0" devices="tripinfo_up_44" vType="typeNS" vaporized=""/>
    <tripinfo id="left_64" depart="219.00" departLane="52o_0" departPos="5.10" departSpeed="0.00" departDelay="1.00" arrival="318.00" arrivalLane="51i_0" arrivalPos="10.00" arrivalSpeed="11.44" duration="99.00" routeLength="1015.10" waitSteps="0" timeLoss="22.68" rerouteNo="0" devices="tripinfo_left_64" vType="typeWE" vaporized=""/>
    <tripinfo id="left_67" depart="232.00" departLane="52o_0" departPos="5.10" departSpeed="0.00" departDelay="0.00" arrival="322.00" arrivalLane="51i_0" arrivalPos="10.00" arrivalSpeed="11.74" duration="90.00" routeLength="1015.10" waitSteps="0" timeLoss="14.05" rerouteNo="0" devices="tripinfo_left_67" vType="typeWE" vaporized=""/>
    <tripinfo id="right_62" depart="213.00" departLane="51o_0" departPos="5.10" departSpeed="0.00" departDelay="0.00" arrival="324.00" arrivalLane="52i_0" arrivalPos="10.00" arrivalSpeed="11.61" duration="111.00" routeLength="1015.10" waitSteps="8" timeLoss="35.15" rerouteNo="0" devices="tripinfo_right_62" vType="typeWE" vaporized=""/>
    <tripinfo id="right_63" depart="219.00" departLane="51o_0" departPos="5.10" departSpeed="0.00" departDelay="3.00" arrival="326.00" arrivalLane="52i_0" arrivalPos="10.00" arrivalSpeed="10.84" duration="107.00" routeLength="1015.10" waitSteps="2" timeLoss="31.07" rerouteNo="0" devices="tripinfo_right_63" vType="typeWE" vaporized=""/>
    <tripinfo id="right_66" depart="227.00" departLane="51o_0" departPos="5.10" departSpeed="0.00" departDelay="0.00" arrival="339.00" arrivalLane="52i_0" arrivalPos="10.00" arrivalSpeed="11.67" duration="112.00" routeLength="1015.10" waitSteps="5" timeLoss="35.97" rerouteNo="0" devices="tripinfo_right_66" vType="typeWE" vaporized=""/>
    <tripinfo id="left_74" depart="253.00" departLane="52o_0" departPos="5.10" departSpeed="0.00" departDelay="0.00" arrival="345.00" arrivalLane="51i_0" arrivalPos="10.00" arrivalSpeed="11.73" duration="92.00" routeLength="1015.10" waitSteps="0" timeLoss="15.79" rerouteNo="0" devices="tripinfo_left_74" vType="typeWE" vaporized=""/>
    <tripinfo id="right_68" depart="239.00" departLane="51o_0" departPos="5.10" departSpeed="0.00" departDelay="0.00" arrival="350.00" arrivalLane="52i_0" arrivalPos="10.00" arrivalSpeed="11.77" duration="111.00" routeLength="1015.10" waitSteps="4" timeLoss="34.86" rerouteNo="0" devices="tripinfo_right_68" vType="typeWE" vaporized=""/>
    <tripinfo id="down_60" depart="206.00" departLane="54o_0" departPos="5.10" departSpeed="0.00" departDelay="0.00" arrival="357.00" arrivalLane="53i_0" arrivalPos="10.00" arrivalSpeed="10.90" duration="151.00" routeLength="1015.10" waitSteps="43" timeLoss="74.95" rerouteNo="0" devices="tripinfo_down_60" vType="typeNS" vaporized=""/>
    <tripinfo id="up_51" depart="162.00" departLane="53o_0" departPos="5.10" departSpeed="0.00" departDelay="0.00" arrival="357.00" arrivalLane="54i_0" arrivalPos="10.00" arrivalSpeed="11.50" duration="195.00" routeLength="1015.10" waitSteps="75" timeLoss="118.81" rerouteNo="0" devices="tripinfo_up_51" vType="typeNS" vaporized=""/>
    <tripinfo id="right_71" depart="245.00" departLane="51o_0" departPos="5.10" departSpeed="0.00" departDelay="0.00" arrival="365.00" arrivalLane="52i_0" arrivalPos="10.00" arrivalSpeed="11.78" duration="120.00" routeLength="1015.10" waitSteps="11" timeLoss="43.52" rerouteNo="0" devices="tripinfo_right_71" vType="typeWE" vaporized=""/>
    <tripinfo id="left_77" depart="258.00" departLane="52o_0" departPos="5.10" departSpeed="0.00" departDelay="0.00" arrival="366.00" arrivalLane="51i_0" arrivalPos="10.00" arrivalSpeed="11.36" duration="108.00" routeLength="1015.10" waitSteps="4" timeLoss="31.42" rerouteNo="0" devices="tripinfo_left_77" vType="typeWE" vaporized=""/>
    <tripinfo id="left_80" depart="263.00" departLane="52o_0" departPos="5.10" departSpeed="0.00" departDelay="1.00" arrival="369.00" arrivalLane="51i_0" arrivalPos="10.00" arrivalSpeed="11.50" duration="106.00" routeLength="1015.10" waitSteps="0" timeLoss="29.56" rerouteNo="0" devices="tripinfo_left_80" vType="typeWE" vaporized=""/>
    <tripinfo id="right_73" depart="250.00" departLane="51o_0" departPos="5.10" departSpeed="0.00" departDelay="0.00" arrival="377.00" arrivalLane="52i_0" arrivalPos="10.00" arrivalSpeed="10.89" duration="127.00" routeLength="1015.10" waitSteps="12" timeLoss="50.93" rerouteNo="0" devices="tripinfo_right_73" vType="typeWE" vaporized=""/>
    <tripinfo id="left_82" depart="268.00" departLane="52o_0" departPos="5.10" departSpeed="0.00" departDelay="3.00" arrival="384.00" arrivalLane="51i_0" arrivalPos="10.00" arrivalSpeed="11.82" duration="116.00" routeLength="1015.10" waitSteps="6" timeLoss="40.03" rerouteNo="0" devices="tripinfo_left_82" vType="typeWE" vaporized=""/>
    <tripinfo id="right_83" depart="266.00" departLane="51o_0" departPos="5.10" departSpeed="0.00" departDelay="0.00" arrival="389.00" arrivalLane="52i_0" arrivalPos="10.00" arrivalSpeed="11.26" duration="123.00" routeLength="1015.10" waitSteps="8" timeLoss="46.59" rerouteNo="0" devices="tripinfo_right_83" vType="typeWE" vaporized=""/>
    <tripinfo id="right_91" depart="287.00" departLane="51o_0" departPos="5.10" departSpeed="0.00" departDelay="0.00" arrival="392.00" arrivalLane="52i_0" arrivalPos="10.00" arrivalSpeed="11.37" duration="105.00" routeLength="1015.10" waitSteps="0" timeLoss="28.40" rerouteNo="0" devices="tripinfo_right_91" vType="typeWE" vaporized=""/>
    <tripinfo id="right_94" depart="292.00" departLane="51o_0" departPos="5.10" departSpeed="0.00" departDelay="0.00" arrival="394.00" arrivalLane="52i_0" arrivalPos="10.00" arrivalSpeed="11.87" duration="102.00" routeLength="1015.10" waitSteps="0" timeLoss="26.02" rerouteNo="0" devices="tripinfo_right_94" vType="typeWE" vaporized=""/>
    <tripinfo id="left_84" depart="273.00" departLane="52o_0" departPos="5.10" departSpeed="0.00" departDelay="5.00" arrival="395.00" arrivalLane="51i_0" arrivalPos="10.00" arrivalSpeed="11.54" duration="122.00" routeLength="1015.10" waitSteps="9" timeLoss="45.33" rerouteNo="0" devices="tripinfo_left_84" vType="typeWE" vaporized=""/>
    <tripinfo id="right_96" depart="297.00" departLane="51o_0" departPos="5.10" departSpeed="0.00" departDelay="1.00" arrival="405.00" arrivalLane="52i_0" arrivalPos="10.00" arrivalSpeed="11.48" duration="108.00" routeLength="1015.10" waitSteps="1" timeLoss="31.91" rerouteNo="0" devices="tripinfo_right_96" vType="typeWE" vaporized=""/>
    <tripinfo id="left_85" depart="280.00" departLane="52o_0" departPos="5.10" departSpeed="0.00" departDelay="9.00" arrival="406.00" arrivalLane="51i_0" arrivalPos="10.00" arrivalSpeed="11.60" duration="126.00" routeLength="1015.10" waitSteps="8" timeLoss="49.50" rerouteNo="0" devices="tripinfo_left_85" vType="typeWE" vaporized=""/>
    <tripinfo id="right_99" depart="309.00" departLane="51o_0" departPos="5.10" departSpeed="0.00" departDelay="0.00" arrival="407.00" arrivalLane="52i_0" arrivalPos="10.00" arrivalSpeed="11.69" duration="98.00" routeLength="1015.10" waitSteps="0" timeLoss="22.08" rerouteNo="0" devices="tripinfo_right_99" vType="typeWE" vaporized=""/>
    <tripinfo id="left_87" depart="285.00" departLane="52o_0" departPos="5.10" departSpeed="0.00" departDelay="12.00" arrival="408.00" arrivalLane="51i_0" arrivalPos="10.00" arrivalSpeed="9.98" duration="123.00" routeLength="1015.10" waitSteps="3" timeLoss="47.02" rerouteNo="0" devices="tripinfo_left_87" vType="typeWE" vaporized=""/>
    <tripinfo id="right_100" depart="314.00" departLane="51o_0" departPos="5.10" departSpeed="0.00" departDelay="4.00" arrival="409.00" arrivalLane="52i_0" arrivalPos="10.00" arrivalSpeed="11.45" duration="95.00" routeLength="1015.10" waitSteps="0" timeLoss="19.06" rerouteNo="0" devices="tripinfo_right_100" vType="typeWE" vaporized=""/>
    <tripinfo id="right_101" depart="319.00" departLane="51o_0" departPos="5.10" departSpeed="0.00" departDelay="8.00" arrival="411.00" arrivalLane="52i_0" arrivalPos="10.00" arrivalSpeed="11.55" duration="92.00" routeLength="1015.10" waitSteps="0" timeLoss="16.01" rerouteNo="0" devices="tripinfo_right_101" vType="typeWE" vaporized=""/>
    <tripinfo id="left_88" depart="290.00" departLane="52o_0" departPos="5.10" departSpeed="0.00" departDelay="9.00" arrival="418.00" arrivalLane="51i_0" arrivalPos="10.00" arrivalSpeed="11.73" duration="128.00" routeLength="1015.10" waitSteps="2" timeLoss="51.87" rerouteNo="0" devices="tripinfo_left_88" vType="typeWE" vaporized=""/>
    <tripinfo id="up_61" depart="212.00" departLane="53o_0" departPos="5.10" departSpeed="0.00" departDelay="0.00" arrival="424.00" arrivalLane="54i_0" arrivalPos="10.00" arrivalSpeed="11.04" duration="212.00" routeLength="1015.10" waitSteps="99" timeLoss="136.03" rerouteNo="0" devices="tripinfo_up_61" vType="typeNS" vaporized=""/>
    <tripinfo id="down_65" depart="220.00" departLane="54o_0" departPos="5.10" departSpeed="0.00" departDelay="0.00" arrival="425.00" arrivalLane="53i_0" arrivalPos="10.00" arrivalSpeed="11.37" duration="205.00" routeLength="1015.10" waitSteps="95" timeLoss="129.16" rerouteNo="0" devices="tripinfo_down_65" vType="typeNS" vaporized=""/>