<?xml version="1.0" encoding="UTF-8"?>

<!-- generated on Fri 02 Dec 2016 05:58:41 PM EST by SUMO gui Version 0.25.0
<?xml version="1.0" encoding="UTF-8"?>

<configuration xmlns:xsi="http://www.w3.org/2001/XMLSchema-instance" xsi:noNamespaceSchemaLocation="http://sumo.dlr.de/xsd/sumo-gui.exeConfiguration.xsd">

    <input>
        <net-file value="data/cross.net.xml"/>
        <route-files value="data/cross.rou.xml"/>
        <additional-files value="data/cross.det.xml"/>
    </input>

    <output>
        <tripinfo-output value="tripinfo.xml"/>
        <save-state.prefix value="data/state"/>
    </output>

    <time>
        <begin value="0"/>
    </time>

    <report>
        <verbose value="true"/>
        <no-step-log value="true"/>
    </report>

    <emissions>
        <phemlight-path value="data/./PHEMlight/"/>
    </emissions>

    <traci_server>
        <remote-port value="8873"/>
    </traci_server>

</configuration>
-->

<detector xmlns:xsi="http://www.w3.org/2001/XMLSchema-instance" xsi:noNamespaceSchemaLocation="http://sumo.dlr.de/xsd/det_e1_file.xsd">
   <interval begin="0.00" end="30.00" id="0" nVehContrib="0" flow="0.00" occupancy="0.00" speed="-1.00" length="-1.00" nVehEntered="0"/>
   <interval begin="30.00" end="60.00" id="0" nVehContrib="1" flow="120.00" occupancy="1.02" speed="16.37" length="5.00" nVehEntered="1"/>
   <interval begin="60.00" end="90.00" id="0" nVehContrib="3" flow="360.00" occupancy="3.17" speed="15.81" length="5.00" nVehEntered="3"/>
   <interval begin="90.00" end="120.00" id="0" nVehContrib="3" flow="360.00" occupancy="3.08" speed="16.23" length="5.00" nVehEntered="3"/>
   <interval begin="120.00" end="150.00" id="0" nVehContrib="3" flow="360.00" occupancy="3.09" speed="16.19" length="5.00" nVehEntered="3"/>
   <interval begin="150.00" end="180.00" id="0" nVehContrib="1" flow="120.00" occupancy="1.01" speed="16.43" length="5.00" nVehEntered="1"/>
   <interval begin="180.00" end="210.00" id="0" nVehContrib="2" flow="240.00" occupancy="2.02" speed="16.47" length="5.00" nVehEntered="2"/>
   <interval begin="210.00" end="240.00" id="0" nVehContrib="0" flow="0.00" occupancy="0.00" speed="-1.00" length="-1.00" nVehEntered="0"/>
   <interval begin="240.00" end="270.00" id="0" nVehContrib="3" flow="360.00" occupancy="3.16" speed="15.88" length="5.00" nVehEntered="3"/>
   <interval begin="270.00" end="300.00" id="0" nVehContrib="2" flow="240.00" occupancy="2.07" speed="16.09" length="5.00" nVehEntered="2"/>
   <interval begin="300.00" end="330.00" id="0" nVehContrib="4" flow="480.00" occupancy="4.19" speed="15.95" length="5.00" nVehEntered="4"/>
   <interval begin="330.00" end="360.00" id="0" nVehContrib="3" flow="360.00" occupancy="3.16" speed="15.86" length="5.00" nVehEntered="3"/>
   <interval begin="360.00" end="390.00" id="0" nVehContrib="2" flow="240.00" occupancy="2.08" speed="16.01" length="5.00" nVehEntered="2"/>
   <interval begin="390.00" end="420.00" id="0" nVehContrib="3" flow="360.00" occupancy="3.06" speed="16.36" length="5.00" nVehEntered="3"/>
   <interval begin="420.00" end="450.00" id="0" nVehContrib="4" flow="480.00" occupancy="6.43" speed="10.47" length="5.00" nVehEntered="4"/>
   <interval begin="450.00" end="480.00" id="0" nVehContrib="2" flow="240.00" occupancy="2.78" speed="12.36" length="5.00" nVehEntered="2"/>
   <interval begin="480.00" end="510.00" id="0" nVehContrib="2" flow="240.00" occupancy="2.35" speed="14.41" length="5.00" nVehEntered="2"/>
   <interval begin="510.00" end="540.00" id="0" nVehContrib="6" flow="720.00" occupancy="7.26" speed="14.25" length="5.00" nVehEntered="6"/>
   <interval begin="540.00" end="570.00" id="0" nVehContrib="3" flow="360.00" occupancy="4.55" speed="11.22" length="5.00" nVehEntered="3"/>
   <interval begin="570.00" end="600.00" id="0" nVehContrib="4" flow="480.00" occupancy="10.36" speed="6.74" length="5.00" nVehEntered="4"/>
   <interval begin="600.00" end="630.00" id="0" nVehContrib="2" flow="240.00" occupancy="17.41" speed="2.31" length="5.00" nVehEntered="2"/>
   <interval begin="630.00" end="660.00" id="0" nVehContrib="3" flow="360.00" occupancy="21.68" speed="2.72" length="5.00" nVehEntered="3"/>
   <interval begin="660.00" end="690.00" id="0" nVehContrib="3" flow="360.00" occupancy="19.01" speed="3.13" length="5.00" nVehEntered="3"/>
   <interval begin="690.00" end="720.00" id="0" nVehContrib="2" flow="240.00" occupancy="27.69" speed="2.52" length="5.00" nVehEntered="2"/>
   <interval begin="720.00" end="750.00" id="0" nVehContrib="3" flow="360.00" occupancy="69.29" speed="2.55" length="5.00" nVehEntered="3"/>
   <interval begin="750.00" end="780.00" id="0" nVehContrib="3" flow="360.00" occupancy="21.26" speed="2.65" length="5.00" nVehEntered="3"/>
   <interval begin="780.00" end="810.00" id="0" nVehContrib="3" flow="360.00" occupancy="20.84" speed="2.79" length="5.00" nVehEntered="3"/>
   <interval begin="810.00" end="840.00" id="0" nVehContrib="2" flow="240.00" occupancy="15.51" speed="2.43" length="5.00" nVehEntered="2"/>
   <interval begin="840.00" end="870.00" id="0" nVehContrib="2" flow="240.00" occupancy="19.50" speed="2.70" length="5.00" nVehEntered="2"/>
   <interval begin="870.00" end="900.00" id="0" nVehContrib="4" flow="480.00" occupancy="4.18" speed="10.95" length="5.00" nVehEntered="4"/>
   <interval begin="900.00" end="930.00" id="0" nVehContrib="3" flow="360.00" occupancy="3.05" speed="16.41" length="5.00" nVehEntered="3"/>
   <interval begin="930.00" end="960.00" id="0" nVehContrib="0" flow="0.00" occupancy="0.00" speed="-1.00" length="-1.00" nVehEntered="0"/>
   <interval begin="960.00" end="990.00" id="0" nVehContrib="3" flow="360.00" occupancy="3.04" speed="16.46" length="5.00" nVehEntered="3"/>
   <interval begin="990.00" end="1020.00" id="0" nVehContrib="3" flow="360.00" occupancy="3.17" speed="15.82" length="5.00" nVehEntered="3"/>
   <interval begin="1020.00" end="1050.00" id="0" nVehContrib="4" flow="480.00" occupancy="4.79" speed="14.69" length="5.00" nVehEntered="4"/>
   <interval begin="1050.00" end="1080.00" id="0" nVehContrib="6" flow="720.00" occupancy="8.68" speed="12.86" length="5.00" nVehEntered="6"/>
   <interval begin="1080.00" end="1110.00" id="0" nVehContrib="3" flow="360.00" occupancy="2.99" speed="14.10" length="5.00" nVehEntered="3"/>
   <interval begin="1110.00" end="1140.00" id="0" nVehContrib="2" flow="240.00" occupancy="2.06" speed="16.21" length="5.00" nVehEntered="2"/>
   <interval begin="1140.00" end="1170.00" id="0" nVehContrib="0" flow="0.00" occupancy="0.00" speed="-1.00" length="-1.00" nVehEntered="0"/>
   <interval begin="1170.00" end="1200.00" id="0" nVehContrib="0" flow="0.00" occupancy="0.00" speed="-1.00" length="-1.00" nVehEntered="0"/>
   <interval begin="1200.00" end="1230.00" id="0" nVehContrib="5" flow="600.00" occupancy="5.07" speed="16.44" length="5.00" nVehEntered="5"/>
   <interval begin="1230.00" end="1260.00" id="0" nVehContrib="5" flow="600.00" occupancy="5.46" speed="15.41" length="5.00" nVehEntered="5"/>
   <interval begin="1260.00" end="1290.00" id="0" nVehContrib="3" flow="360.00" occupancy="3.98" speed="12.77" length="5.00" nVehEntered="3"/>
   <interval begin="1290.00" end="1320.00" id="0" nVehContrib="2" flow="240.00" occupancy="2.53" speed="13.59" length="5.00" nVehEntered="2"/>
   <interval begin="1320.00" end="1350.00" id="0" nVehContrib="2" flow="240.00" occupancy="2.17" speed="15.43" length="5.00" nVehEntered="2"/>
   <interval begin="1350.00" end="1380.00" id="0" nVehContrib="1" flow="120.00" occupancy="1.02" speed="16.40" length="5.00" nVehEntered="1"/>
   <interval begin="1380.00" end="1410.00" id="0" nVehContrib="1" flow="120.00" occupancy="1.01" speed="16.55" length="5.00" nVehEntered="1"/>
   <interval begin="1410.00" end="1440.00" id="0" nVehContrib="5" flow="600.00" occupancy="5.55" speed="15.27" length="5.00" nVehEntered="5"/>
   <interval begin="1440.00" end="1470.00" id="0" nVehContrib="3" flow="360.00" occupancy="7.17" speed="7.27" length="5.00" nVehEntered="3"/>
   <interval begin="1470.00" end="1500.00" id="0" nVehContrib="4" flow="480.00" occupancy="21.34" speed="3.84" length="5.00" nVehEntered="4"/>
   <interval begin="1500.00" end="1530.00" id="0" nVehContrib="3" flow="360.00" occupancy="17.27" speed="4.68" length="5.00" nVehEntered="3"/>
   <interval begin="1530.00" end="1560.00" id="0" nVehContrib="4" flow="480.00" occupancy="4.49" speed="14.89" length="5.00" nVehEntered="4"/>
   <interval begin="1560.00" end="1590.00" id="0" nVehContrib="5" flow="600.00" occupancy="9.12" speed="9.88" length="5.00" nVehEntered="5"/>
   <interval begin="1590.00" end="1620.00" id="0" nVehContrib="1" flow="120.00" occupancy="12.59" speed="1.72" length="5.00" nVehEntered="1"/>
   <interval begin="1620.00" end="1650.00" id="0" nVehContrib="7" flow="840.00" occupancy="19.10" speed="5.75" length="5.00" nVehEntered="7"/>
   <interval begin="1650.00" end="1680.00" id="0" nVehContrib="3" flow="360.00" occupancy="5.33" speed="10.86" length="5.00" nVehEntered="3"/>
   <interval begin="1680.00" end="1710.00" id="0" nVehContrib="3" flow="360.00" occupancy="3.08" speed="16.22" length="5.00" nVehEntered="3"/>
   <interval begin="1710.00" end="1740.00" id="0" nVehContrib="6" flow="720.00" occupancy="9.19" speed="12.50" length="5.00" nVehEntered="6"/>
   <interval begin="1740.00" end="1770.00" id="0" nVehContrib="1" flow="120.00" occupancy="1.10" speed="16.49" length="5.00" nVehEntered="1"/>
   <interval begin="1770.00" end="1800.00" id="0" nVehContrib="6" flow="720.00" occupancy="8.96" speed="11.95" length="5.00" nVehEntered="6"/>
   <interval begin="1800.00" end="1830.00" id="0" nVehContrib="4" flow="480.00" occupancy="17.34" speed="5.68" length="5.00" nVehEntered="4"/>
   <interval begin="1830.00" end="1860.00" id="0" nVehContrib="2" flow="240.00" occupancy="13.21" speed="3.58" length="5.00" nVehEntered="2"/>
   <interval begin="1860.00" end="1890.00" id="0" nVehContrib="6" flow="720.00" occupancy="10.63" speed="12.69" length="5.00" nVehEntered="6"/>
   <interval begin="1890.00" end="1920.00" id="0" nVehContrib="4" flow="480.00" occupancy="17.82" speed="5.15" length="5.00" nVehEntered="4"/>
   <interval begin="1920.00" end="1950.00" id="0" nVehContrib="3" flow="360.00" occupancy="3.07" speed="16.31" length="5.00" nVehEntered="3"/>
   <interval begin="1950.00" end="1980.00" id="0" nVehContrib="3" flow="360.00" occupancy="3.09" speed="16.19" length="5.00" nVehEntered="3"/>
   <interval begin="1980.00" end="2010.00" id="0" nVehContrib="1" flow="120.00" occupancy="1.01" speed="16.57" length="5.00" nVehEntered="1"/>
   <interval begin="2010.00" end="2040.00" id="0" nVehContrib="2" flow="240.00" occupancy="2.03" speed="16.45" length="5.00" nVehEntered="2"/>
   <interval begin="2040.00" end="2070.00" id="0" nVehContrib="3" flow="360.00" occupancy="3.05" speed="16.40" length="5.00" nVehEntered="3"/>
   <interval begin="2070.00" end="2100.00" id="0" nVehContrib="1" flow="120.00" occupancy="1.23" speed="13.53" length="5.00" nVehEntered="1"/>
   <interval begin="2100.00" end="2130.00" id="0" nVehContrib="2" flow="240.00" occupancy="2.09" speed="15.92" length="5.00" nVehEntered="2"/>
   <interval begin="2130.00" end="2160.00" id="0" nVehContrib="4" flow="480.00" occupancy="5.25" speed="12.86" length="5.00" nVehEntered="4"/>
   <interval begin="2160.00" end="2190.00" id="0" nVehContrib="1" flow="120.00" occupancy="1.02" speed="16.37" length="5.00" nVehEntered="1"/>
   <interval begin="2190.00" end="2220.00" id="0" nVehContrib="5" flow="600.00" occupancy="6.25" speed="13.91" length="5.00" nVehEntered="5"/>
   <interval begin="2220.00" end="2250.00" id="0" nVehContrib="2" flow="240.00" occupancy="3.48" speed="12.13" length="5.00" nVehEntered="2"/>
   <interval begin="2250.00" end="2280.00" id="0" nVehContrib="3" flow="360.00" occupancy="2.73" speed="16.32" length="5.00" nVehEntered="3"/>
   <interval begin="2280.00" end="2310.00" id="0" nVehContrib="4" flow="480.00" occupancy="4.20" speed="15.93" length="5.00" nVehEntered="4"/>
   <interval begin="2310.00" end="2340.00" id="0" nVehContrib="4" flow="480.00" occupancy="5.38" speed="12.44" length="5.00" nVehEntered="4"/>
   <interval begin="2340.00" end="2370.00" id="0" nVehContrib="2" flow="240.00" occupancy="2.78" speed="12.56" length="5.00" nVehEntered="2"/>
   <interval begin="2370.00" end="2400.00" id="0" nVehContrib="2" flow="240.00" occupancy="2.27" speed="14.82" length="5.00" nVehEntered="2"/>
   <interval begin="2400.00" end="2430.00" id="0" nVehContrib="2" flow="240.00" occupancy="2.19" speed="15.28" length="5.00" nVehEntered="2"/>
   <interval begin="2430.00" end="2460.00" id="0" nVehContrib="5" flow="600.00" occupancy="5.67" speed="14.90" length="5.00" nVehEntered="5"/>
   <interval begin="2460.00" end="2490.00" id="0" nVehContrib="1" flow="120.00" occupancy="1.01" speed="16.50" length="5.00" nVehEntered="1"/>
   <interval begin="2490.00" end="2520.00" id="0" nVehContrib="5" flow="600.00" occupancy="5.53" speed="15.27" length="5.00" nVehEntered="5"/>
   <interval begin="2520.00" end="2550.00" id="0" nVehContrib="1" flow="120.00" occupancy="1.03" speed="16.13" length="5.00" nVehEntered="1"/>
   <interval begin="2550.00" end="2580.00" id="0" nVehContrib="6" flow="720.00" occupancy="7.64" speed="13.33" length="5.00" nVehEntered="6"/>
   <interval begin="2580.00" end="2610.00" id="0" nVehContrib="4" flow="480.00" occupancy="22.85" speed="3.56" length="5.00" nVehEntered="4"/>
   <interval begin="2610.00" end="2640.00" id="0" nVehContrib="2" flow="240.00" occupancy="14.85" speed="2.61" length="5.00" nVehEntered="2"/>
   <interval begin="2640.00" end="2670.00" id="0" nVehContrib="2" flow="240.00" occupancy="14.36" speed="3.51" length="5.00" nVehEntered="2"/>
   <interval begin="2670.00" end="2700.00" id="0" nVehContrib="3" flow="360.00" occupancy="3.21" speed="15.66" length="5.00" nVehEntered="3"/>
   <interval begin="2700.00" end="2730.00" id="0" nVehContrib="2" flow="240.00" occupancy="2.10" speed="15.86" length="5.00" nVehEntered="2"/>
   <interval begin="2730.00" end="2760.00" id="0" nVehContrib="3" flow="360.00" occupancy="3.23" speed="15.56" length="5.00" nVehEntered="3"/>
   <interval begin="2760.00" end="2790.00" id="0" nVehContrib="4" flow="480.00" occupancy="4.56" speed="14.77" length="5.00" nVehEntered="4"/>
   <interval begin="2790.00" end="2820.00" id="0" nVehContrib="5" flow="600.00" occupancy="7.82" speed="11.79" length="5.00" nVehEntered="5"/>
   <interval begin="2820.00" end="2850.00" id="0" nVehContrib="2" flow="240.00" occupancy="2.09" speed="15.93" length="5.00" nVehEntered="2"/>
   <interval begin="2850.00" end="2880.00" id="0" nVehContrib="3" flow="360.00" occupancy="3.14" speed="15.94" length="5.00" nVehEntered="3"/>
   <interval begin="2880.00" end="2910.00" id="0" nVehContrib="3" flow="360.00" occupancy="3.08" speed="16.23" length="5.00" nVehEntered="3"/>
   <interval begin="2910.00" end="2940.00" id="0" nVehContrib="0" flow="0.00" occupancy="0.00" speed="-1.00" length="-1.00" nVehEntered="0"/>
   <interval begin="2940.00" end="2970.00" id="0" nVehContrib="5" flow="600.00" occupancy="5.48" speed="15.40" length="5.00" nVehEntered="5"/>
   <interval begin="2970.00" end="3000.00" id="0" nVehContrib="4" flow="480.00" occupancy="5.64" speed="12.11" length="5.00" nVehEntered="4"/>
   <interval begin="3000.00" end="3030.00" id="0" nVehContrib="0" flow="0.00" occupancy="0.00" speed="-1.00" length="-1.00" nVehEntered="0"/>
   <interval begin="3030.00" end="3060.00" id="0" nVehContrib="2" flow="240.00" occupancy="2.02" speed="16.48" length="5.00" nVehEntered="2"/>
   <interval begin="3060.00" end="3090.00" id="0" nVehContrib="1" flow="120.00" occupancy="1.01" speed="16.56" length="5.00" nVehEntered="1"/>
   <interval begin="3090.00" end="3120.00" id="0" nVehContrib="4" flow="480.00" occupancy="4.39" speed="15.27" length="5.00" nVehEntered="4"/>
   <interval begin="3120.00" end="3150.00" id="0" nVehContrib="4" flow="480.00" occupancy="5.15" speed="13.53" length="5.00" nVehEntered="4"/>
   <interval begin="3150.00" end="3180.00" id="0" nVehContrib="1" flow="120.00" occupancy="1.01" speed="16.51" length="5.00" nVehEntered="1"/>
   <interval begin="3180.00" end="3210.00" id="0" nVehContrib="3" flow="360.00" occupancy="3.02" speed="16.56" length="5.00" nVehEntered="3"/>
   <interval begin="3210.00" end="3240.00" id="0" nVehContrib="3" flow="360.00" occupancy="3.13" speed="16.00" length="5.00" nVehEntered="3"/>
   <interval begin="3240.00" end="3270.00" id="0" nVehContrib="1" flow="120.00" occupancy="1.01" speed="16.46" length="5.00" nVehEntered="1"/>
   <interval begin="3270.00" end="3300.00" id="0" nVehContrib="5" flow="600.00" occupancy="5.65" speed="14.92" length="5.00" nVehEntered="5"/>
   <interval begin="3300.00" end="3330.00" id="0" nVehContrib="4" flow="480.00" occupancy="4.15" speed="16.08" length="5.00" nVehEntered="4"/>
   <interval begin="3330.00" end="3360.00" id="0" nVehContrib="5" flow="600.00" occupancy="6.58" speed="13.22" length="5.00" nVehEntered="5"/>
   <interval begin="3360.00" end="3390.00" id="0" nVehContrib="4" flow="480.00" occupancy="4.49" speed="14.96" length="5.00" nVehEntered="4"/>
   <interval begin="3390.00" end="3420.00" id="0" nVehContrib="0" flow="0.00" occupancy="0.00" speed="-1.00" length="-1.00" nVehEntered="0"/>
   <interval begin="3420.00" end="3450.00" id="0" nVehContrib="4" flow="480.00" occupancy="4.03" speed="16.53" length="5.00" nVehEntered="4"/>
   <interval begin="3450.00" end="3480.00" id="0" nVehContrib="6" flow="720.00" occupancy="8.03" speed="12.89" length="5.00" nVehEntered="6"/>
   <interval begin="3480.00" end="3510.00" id="0" nVehContrib="4" flow="480.00" occupancy="18.86" speed="5.30" length="5.00" nVehEntered="4"/>
   <interval begin="3510.00" end="3540.00" id="0" nVehContrib="2" flow="240.00" occupancy="14.04" speed="3.07" length="5.00" nVehEntered="2"/>
   <interval begin="3540.00" end="3570.00" id="0" nVehContrib="2" flow="240.00" occupancy="18.56" speed="3.78" length="5.00" nVehEntered="2"/>
   <interval begin="3570.00" end="3600.00" id="0" nVehContrib="3" flow="360.00" occupancy="15.49" speed="2.63" length="5.00" nVehEntered="3"/>
   <interval begin="3600.00" end="3630.00" id="0" nVehContrib="8" flow="960.00" occupancy="29.76" speed="5.27" length="5.00" nVehEntered="8"/>
   <interval begin="3630.00" end="3660.00" id="0" nVehContrib="3" flow="360.00" occupancy="3.85" speed="13.48" length="5.00" nVehEntered="3"/>
   <interval begin="3660.00" end="3690.00" id="0" nVehContrib="4" flow="480.00" occupancy="4.06" speed="16.44" length="5.00" nVehEntered="4"/>
   <interval begin="3690.00" end="3720.00" id="0" nVehContrib="5" flow="600.00" occupancy="6.55" speed="13.26" length="5.00" nVehEntered="5"/>
   <interval begin="3720.00" end="3750.00" id="0" nVehContrib="3" flow="360.00" occupancy="13.63" speed="4.22" length="5.00" nVehEntered="3"/>
   <interval begin="3750.00" end="3780.00" id="0" nVehContrib="3" flow="360.00" occupancy="45.52" speed="2.46" length="5.00" nVehEntered="3"/>
   <interval begin="3780.00" end="3810.00" id="0" nVehContrib="6" flow="720.00" occupancy="28.33" speed="4.32" length="5.00" nVehEntered="6"/>
   <interval begin="3810.00" end="3840.00" id="0" nVehContrib="3" flow="360.00" occupancy="8.81" speed="9.94" length="5.00" nVehEntered="3"/>
   <interval begin="3840.00" end="3870.00" id="0" nVehContrib="5" flow="600.00" occupancy="20.10" speed="6.85" length="5.00" nVehEntered="5"/>
   <interval begin="3870.00" end="3900.00" id="0" nVehContrib="3" flow="360.00" occupancy="3.19" speed="15.77" length="5.00" nVehEntered="3"/>
   <interval begin="3900.00" end="3930.00" id="0" nVehContrib="2" flow="240.00" occupancy="2.01" speed="16.55" length="5.00" nVehEntered="2"/>
   <interval begin="3930.00" end="3960.00" id="0" nVehContrib="3" flow="360.00" occupancy="3.34" speed="15.05" length="5.00" nVehEntered="3"/>
   <interval begin="3960.00" end="3990.00" id="0" nVehContrib="3" flow="360.00" occupancy="3.65" speed="15.73" length="5.00" nVehEntered="3"/>
   <interval begin="3990.00" end="4020.00" id="0" nVehContrib="6" flow="720.00" occupancy="6.60" speed="14.67" length="5.00" nVehEntered="6"/>
   <interval begin="4020.00" end="4050.00" id="0" nVehContrib="4" flow="480.00" occupancy="20.70" speed="4.33" length="5.00" nVehEntered="4"/>
   <interval begin="4050.00" end="4080.00" id="0" nVehContrib="3" flow="360.00" occupancy="18.92" speed="3.25" length="5.00" nVehEntered="3"/>
   <interval begin="4080.00" end="4110.00" id="0" nVehContrib="5" flow="600.00" occupancy="25.23" speed="4.04" length="5.00" nVehEntered="5"/>
   <interval begin="4110.00" end="4140.00" id="0" nVehContrib="5" flow="600.00" occupancy="45.18" speed="7.57" length="5.00" nVehEntered="5"/>
   <interval begin="4140.00" end="4170.00" id="0" nVehContrib="5" flow="600.00" occupancy="32.93" speed="5.53" length="5.00" nVehEntered="5"/>
   <interval begin="4170.00" end="4200.00" id="0" nVehContrib="3" flow="360.00" occupancy="3.06" speed="16.34" length="5.00" nVehEntered="3"/>
   <interval begin="4200.00" end="4230.00" id="0" nVehContrib="4" flow="480.00" occupancy="4.35" speed="15.43" length="5.00" nVehEntered="4"/>
   <interval begin="4230.00" end="4260.00" id="0" nVehContrib="5" flow="600.00" occupancy="8.82" speed="10.52" length="5.00" nVehEntered="5"/>
   <interval begin="4260.00" end="4290.00" id="0" nVehContrib="2" flow="240.00" occupancy="2.54" speed="13.67" length="5.00" nVehEntered="2"/>
   <interval begin="4290.00" end="4320.00" id="0" nVehContrib="5" flow="600.00" occupancy="5.21" speed="16.02" length="5.00" nVehEntered="5"/>
   <interval begin="4320.00" end="4350.00" id="0" nVehContrib="5" flow="600.00" occupancy="7.38" speed="11.43" length="5.00" nVehEntered="5"/>
   <interval begin="4350.00" end="4380.00" id="0" nVehContrib="3" flow="360.00" occupancy="15.48" speed="5.23" length="5.00" nVehEntered="3"/>
   <interval begin="4380.00" end="4410.00" id="0" nVehContrib="0" flow="0.00" occupancy="0.00" speed="-1.00" length="-1.00" nVehEntered="0"/>
   <interval begin="4410.00" end="4440.00" id="0" nVehContrib="4" flow="480.00" occupancy="5.28" speed="12.82" length="5.00" nVehEntered="4"/>
   <interval begin="4440.00" end="4470.00" id="0" nVehContrib="4" flow="480.00" occupancy="20.25" speed="7.67" length="5.00" nVehEntered="4"/>
   <interval begin="4470.00" end="4500.00" id="0" nVehContrib="7" flow="840.00" occupancy="8.76" speed="11.84" length="5.00" nVehEntered="7"/>
   <interval begin="4500.00" end="4530.00" id="0" nVehContrib="1" flow="120.00" occupancy="1.25" speed="13.33" length="5.00" nVehEntered="1"/>
   <interval begin="4530.00" end="4560.00" id="0" nVehContrib="3" flow="360.00" occupancy="5.61" speed="9.78" length="5.00" nVehEntered="3"/>
   <interval begin="4560.00" end="4590.00" id="0" nVehContrib="3" flow="360.00" occupancy="6.98" speed="7.67" length="5.00" nVehEntered="3"/>
   <interval begin="4590.00" end="4620.00" id="0" nVehContrib="2" flow="240.00" occupancy="16.25" speed="2.31" length="5.00" nVehEntered="2"/>
   <interval begin="4620.00" end="4650.00" id="0" nVehContrib="4" flow="480.00" occupancy="7.91" speed="9.51" length="5.00" nVehEntered="4"/>
   <interval begin="4650.00" end="4680.00" id="0" nVehContrib="5" flow="600.00" occupancy="26.70" speed="4.57" length="5.00" nVehEntered="5"/>
   <interval begin="4680.00" end="4710.00" id="0" nVehContrib="5" flow="600.00" occupancy="5.29" speed="15.81" length="5.00" nVehEntered="5"/>
   <interval begin="4710.00" end="4740.00" id="0" nVehContrib="3" flow="360.00" occupancy="3.74" speed="13.42" length="5.00" nVehEntered="3"/>
   <interval begin="4740.00" end="4770.00" id="0" nVehContrib="0" flow="0.00" occupancy="0.00" speed="-1.00" length="-1.00" nVehEntered="0"/>
   <interval begin="4770.00" end="4800.00" id="0" nVehContrib="6" flow="720.00" occupancy="8.79" speed="12.67" length="5.00" nVehEntered="6"/>
   <interval begin="4800.00" end="4830.00" id="0" nVehContrib="1" flow="120.00" occupancy="1.23" speed="13.56" length="5.00" nVehEntered="1"/>
   <interval begin="4830.00" end="4860.00" id="0" nVehContrib="5" flow="600.00" occupancy="8.66" speed="10.95" length="5.00" nVehEntered="5"/>
   <interval begin="4860.00" end="4890.00" id="0" nVehContrib="3" flow="360.00" occupancy="19.09" speed="3.03" length="5.00" nVehEntered="3"/>
   <interval begin="4890.00" end="4920.00" id="0" nVehContrib="1" flow="120.00" occupancy="10.00" speed="1.67" length="5.00" nVehEntered="1"/>
   <interval begin="4920.00" end="4950.00" id="0" nVehContrib="2" flow="240.00" occupancy="3.27" speed="10.25" length="5.00" nVehEntered="2"/>
   <interval begin="4950.00" end="4980.00" id="0" nVehContrib="2" flow="240.00" occupancy="2.20" speed="15.26" length="5.00" nVehEntered="2"/>
   <interval begin="4980.00" end="5010.00" id="0" nVehContrib="0" flow="0.00" occupancy="0.00" speed="-1.00" length="-1.00" nVehEntered="0"/>
   <interval begin="5010.00" end="5040.00" id="0" nVehContrib="0" flow="0.00" occupancy="0.00" speed="-1.00" length="-1.00" nVehEntered="0"/>
   <interval begin="5040.00" end="5070.00" id="0" nVehContrib="0" flow="0.00" occupancy="0.47" speed="-1.00" length="-1.00" nVehEntered="0"/>
   <interval begin="5070.00" end="5100.00" id="0" nVehContrib="4" flow="480.00" occupancy="3.62" speed="16.31" length="5.00" nVehEntered="4"/>
   <interval begin="5100.00" end="5130.00" id="0" nVehContrib="1" flow="120.00" occupancy="1.02" speed="16.32" length="5.00" nVehEntered="1"/>
   <interval begin="5130.00" end="5160.00" id="0" nVehContrib="3" flow="360.00" occupancy="3.03" speed="16.48" length="5.00" nVehEntered="3"/>
   <interval begin="5160.00" end="5190.00" id="0" nVehContrib="0" flow="0.00" occupancy="0.00" speed="-1.00" length="-1.00" nVehEntered="0"/>
   <interval begin="5190.00" end="5220.00" id="0" nVehContrib="3" flow="360.00" occupancy="3.01" speed="16.59" length="5.00" nVehEntered="3"/>
   <interval begin="5220.00" end="5250.00" id="0" nVehContrib="6" flow="720.00" occupancy="6.55" speed="15.45" length="5.00" nVehEntered="6"/>
   <interval begin="5250.00" end="5280.00" id="0" nVehContrib="5" flow="600.00" occupancy="13.22" speed="8.12" length="5.00" nVehEntered="5"/>
   <interval begin="5280.00" end="5310.00" id="0" nVehContrib="1" flow="120.00" occupancy="1.00" speed="16.62" length="5.00" nVehEntered="1"/>
   <interval begin="5310.00" end="5340.00" id="0" nVehContrib="5" flow="600.00" occupancy="8.03" speed="12.14" length="5.00" nVehEntered="5"/>
   <interval begin="5340.00" end="5370.00" id="0" nVehContrib="3" flow="360.00" occupancy="17.91" speed="3.23" length="5.00" nVehEntered="3"/>
   <interval begin="5370.00" end="5400.00" id="0" nVehContrib="7" flow="840.00" occupancy="28.58" speed="6.69" length="5.00" nVehEntered="7"/>
   <interval begin="5400.00" end="5430.00" id="0" nVehContrib="2" flow="240.00" occupancy="4.67" speed="8.16" length="5.00" nVehEntered="2"/>
   <interval begin="5430.00" end="5460.00" id="0" nVehContrib="1" flow="120.00" occupancy="1.22" speed="13.68" length="5.00" nVehEntered="1"/>
   <interval begin="5460.00" end="5490.00" id="0" nVehContrib="3" flow="360.00" occupancy="3.19" speed="15.71" length="5.00" nVehEntered="3"/>
   <interval begin="5490.00" end="5520.00" id="0" nVehContrib="3" flow="360.00" occupancy="4.98" speed="10.73" length="5.00" nVehEntered="3"/>
   <interval begin="5520.00" end="5550.00" id="0" nVehContrib="4" flow="480.00" occupancy="4.23" speed="15.80" length="5.00" nVehEntered="4"/>
   <interval begin="5550.00" end="5580.00" id="0" nVehContrib="5" flow="600.00" occupancy="8.35" speed="11.13" length="5.00" nVehEntered="5"/>
   <interval begin="5580.00" end="5610.00" id="0" nVehContrib="2" flow="240.00" occupancy="12.16" speed="5.88" length="5.00" nVehEntered="2"/>
   <interval begin="5610.00" end="5640.00" id="0" nVehContrib="4" flow="480.00" occupancy="10.45" speed="6.61" length="5.00" nVehEntered="4"/>
   <interval begin="5640.00" end="5670.00" id="0" nVehContrib="3" flow="360.00" occupancy="19.65" speed="2.96" length="5.00" nVehEntered="3"/>
   <interval begin="5670.00" end="5700.00" id="0" nVehContrib="3" flow="360.00" occupancy="21.29" speed="2.85" length="5.00" nVehEntered="3"/>
   <interval begin="5700.00" end="5730.00" id="0" nVehContrib="3" flow="360.00" occupancy="19.34" speed="2.94" length="5.00" nVehEntered="3"/>
   <interval begin="5730.00" end="5760.00" id="0" nVehContrib="5" flow="600.00" occupancy="23.86" speed="4.33" length="5.00" nVehEntered="5"/>
   <interval begin="5760.00" end="5790.00" id="0" nVehContrib="3" flow="360.00" occupancy="4.06" speed="12.61" length="5.00" nVehEntered="3"/>
   <interval begin="5790.00" end="5820.00" id="0" nVehContrib="4" flow="480.00" occupancy="7.10" speed="11.36" length="5.00" nVehEntered="4"/>
   <interval begin="5820.00" end="5850.00" id="0" nVehContrib="6" flow="720.00" occupancy="23.72" speed="8.66" length="5.00" nVehEntered="6"/>
   <interval begin="5850.00" end="5880.00" id="0" nVehContrib="4" flow="480.00" occupancy="6.09" speed="11.74" length="5.00" nVehEntered="4"/>
   <interval begin="5880.00" end="5910.00" id="0" nVehContrib="0" flow="0.00" occupancy="0.40" speed="-1.00" length="-1.00" nVehEntered="0"/>
   <interval begin="5910.00" end="5940.00" id="0" nVehContrib="2" flow="240.00" occupancy="1.62" speed="16.47" length="5.00" nVehEntered="2"/>
   <interval begin="5940.00" end="5970.00" id="0" nVehContrib="5" flow="600.00" occupancy="7.92" speed="11.77" length="5.00" nVehEntered="5"/>
   <interval begin="5970.00" end="6000.00" id="0" nVehContrib="3" flow="360.00" occupancy="7.42" speed="8.59" length="5.00" nVehEntered="3"/>
   <interval begin="6000.00" end="6030.00" id="0" nVehContrib="3" flow="360.00" occupancy="18.58" speed="2.84" length="5.00" nVehEntered="3"/>
   <interval begin="6030.00" end="6060.00" id="0" nVehContrib="6" flow="720.00" occupancy="28.55" speed="4.54" length="5.00" nVehEntered="6"/>