<?xml version="1.0" encoding="UTF-8"?>

<!-- generated on Thu 01 Dec 2016 10:03:42 PM EST by SUMO gui Version 0.25.0
<?xml version="1.0" encoding="UTF-8"?>

<configuration xmlns:xsi="http://www.w3.org/2001/XMLSchema-instance" xsi:noNamespaceSchemaLocation="http://sumo.dlr.de/xsd/sumo-gui.exeConfiguration.xsd">

    <input>
        <net-file value="data/cross.net.xml"/>
        <route-files value="data/cross.rou.xml"/>
        <additional-files value="data/cross.det.xml"/>
    </input>

    <output>
        <tripinfo-output value="tripinfo.xml"/>
        <save-state.prefix value="data/state"/>
    </output>

    <time>
        <begin value="0"/>
    </time>

    <report>
        <verbose value="true"/>
        <no-step-log value="true"/>
    </report>

    <emissions>
        <phemlight-path value="data/./PHEMlight/"/>
    </emissions>

    <traci_server>
        <remote-port value="8873"/>
    </traci_server>

</configuration>
-->

<detector xmlns:xsi="http://www.w3.org/2001/XMLSchema-instance" xsi:noNamespaceSchemaLocation="http://sumo.dlr.de/xsd/det_e1_file.xsd">
   <interval begin="0.00" end="30.00" id="0" nVehContrib="0" flow="0.00" occupancy="0.00" speed="-1.00" length="-1.00" nVehEntered="0"/>
   <interval begin="30.00" end="60.00" id="0" nVehContrib="1" flow="120.00" occupancy="1.02" speed="16.37" length="5.00" nVehEntered="1"/>
   <interval begin="60.00" end="90.00" id="0" nVehContrib="3" flow="360.00" occupancy="3.20" speed="15.69" length="5.00" nVehEntered="3"/>
   <interval begin="90.00" end="120.00" id="0" nVehContrib="3" flow="360.00" occupancy="3.55" speed="14.19" length="5.00" nVehEntered="3"/>
   <interval begin="120.00" end="150.00" id="0" nVehContrib="3" flow="360.00" occupancy="4.34" speed="11.68" length="5.00" nVehEntered="3"/>
   <interval begin="150.00" end="180.00" id="0" nVehContrib="1" flow="120.00" occupancy="1.01" speed="16.48" length="5.00" nVehEntered="1"/>
   <interval begin="180.00" end="210.00" id="0" nVehContrib="2" flow="240.00" occupancy="2.26" speed="14.76" length="5.00" nVehEntered="2"/>
   <interval begin="210.00" end="240.00" id="0" nVehContrib="0" flow="0.00" occupancy="0.00" speed="-1.00" length="-1.00" nVehEntered="0"/>
   <interval begin="240.00" end="270.00" id="0" nVehContrib="3" flow="360.00" occupancy="3.02" speed="16.54" length="5.00" nVehEntered="3"/>
   <interval begin="270.00" end="300.00" id="0" nVehContrib="2" flow="240.00" occupancy="2.05" speed="16.29" length="5.00" nVehEntered="2"/>
   <interval begin="300.00" end="330.00" id="0" nVehContrib="4" flow="480.00" occupancy="4.50" speed="14.87" length="5.00" nVehEntered="4"/>
   <interval begin="330.00" end="360.00" id="0" nVehContrib="3" flow="360.00" occupancy="3.90" speed="13.15" length="5.00" nVehEntered="3"/>
   <interval begin="360.00" end="390.00" id="0" nVehContrib="1" flow="120.00" occupancy="8.28" speed="6.26" length="5.00" nVehEntered="1"/>
   <interval begin="390.00" end="420.00" id="0" nVehContrib="3" flow="360.00" occupancy="12.18" speed="5.88" length="5.00" nVehEntered="3"/>
   <interval begin="420.00" end="450.00" id="0" nVehContrib="2" flow="240.00" occupancy="51.46" speed="2.32" length="5.00" nVehEntered="2"/>
   <interval begin="450.00" end="480.00" id="0" nVehContrib="4" flow="480.00" occupancy="54.50" speed="3.04" length="5.00" nVehEntered="4"/>
   <interval begin="480.00" end="510.00" id="0" nVehContrib="3" flow="360.00" occupancy="17.97" speed="4.69" length="5.00" nVehEntered="3"/>
   <interval begin="510.00" end="540.00" id="0" nVehContrib="4" flow="480.00" occupancy="23.03" speed="3.56" length="5.00" nVehEntered="4"/>
   <interval begin="540.00" end="570.00" id="0" nVehContrib="3" flow="360.00" occupancy="19.75" speed="2.91" length="5.00" nVehEntered="3"/>
   <interval begin="570.00" end="600.00" id="0" nVehContrib="1" flow="120.00" occupancy="9.75" speed="1.71" length="5.00" nVehEntered="1"/>
   <interval begin="600.00" end="630.00" id="0" nVehContrib="2" flow="240.00" occupancy="20.74" speed="1.90" length="5.00" nVehEntered="2"/>
   <interval begin="630.00" end="660.00" id="0" nVehContrib="4" flow="480.00" occupancy="22.03" speed="3.54" length="5.00" nVehEntered="4"/>
   <interval begin="660.00" end="690.00" id="0" nVehContrib="3" flow="360.00" occupancy="19.92" speed="2.88" length="5.00" nVehEntered="3"/>
   <interval begin="690.00" end="720.00" id="0" nVehContrib="1" flow="120.00" occupancy="10.83" speed="1.54" length="5.00" nVehEntered="1"/>
   <interval begin="720.00" end="750.00" id="0" nVehContrib="3" flow="360.00" occupancy="57.77" speed="1.69" length="5.00" nVehEntered="3"/>
   <interval begin="750.00" end="780.00" id="0" nVehContrib="2" flow="240.00" occupancy="15.07" speed="2.45" length="5.00" nVehEntered="2"/>
   <interval begin="780.00" end="810.00" id="0" nVehContrib="2" flow="240.00" occupancy="17.00" speed="2.64" length="5.00" nVehEntered="2"/>
   <interval begin="810.00" end="840.00" id="0" nVehContrib="5" flow="600.00" occupancy="23.63" speed="3.64" length="5.00" nVehEntered="5"/>
   <interval begin="840.00" end="870.00" id="0" nVehContrib="4" flow="480.00" occupancy="25.45" speed="3.54" length="5.00" nVehEntered="4"/>
   <interval begin="870.00" end="900.00" id="0" nVehContrib="2" flow="240.00" occupancy="15.60" speed="2.43" length="5.00" nVehEntered="2"/>
   <interval begin="900.00" end="930.00" id="0" nVehContrib="4" flow="480.00" occupancy="22.34" speed="3.50" length="5.00" nVehEntered="4"/>
   <interval begin="930.00" end="960.00" id="0" nVehContrib="1" flow="120.00" occupancy="10.59" speed="1.57" length="5.00" nVehEntered="1"/>
   <interval begin="960.00" end="990.00" id="0" nVehContrib="1" flow="120.00" occupancy="10.94" speed="1.52" length="5.00" nVehEntered="1"/>
   <interval begin="990.00" end="1020.00" id="0" nVehContrib="4" flow="480.00" occupancy="23.40" speed="3.35" length="5.00" nVehEntered="4"/>
   <interval begin="1020.00" end="1050.00" id="0" nVehContrib="4" flow="480.00" occupancy="24.12" speed="3.22" length="5.00" nVehEntered="4"/>
   <interval begin="1050.00" end="1080.00" id="0" nVehContrib="4" flow="480.00" occupancy="24.58" speed="3.28" length="5.00" nVehEntered="4"/>
   <interval begin="1080.00" end="1110.00" id="0" nVehContrib="3" flow="360.00" occupancy="19.35" speed="2.92" length="5.00" nVehEntered="3"/>
   <interval begin="1110.00" end="1140.00" id="0" nVehContrib="1" flow="120.00" occupancy="43.12" speed="1.59" length="5.00" nVehEntered="1"/>
   <interval begin="1140.00" end="1170.00" id="0" nVehContrib="3" flow="360.00" occupancy="31.67" speed="2.21" length="5.00" nVehEntered="3"/>
   <interval begin="1170.00" end="1200.00" id="0" nVehContrib="0" flow="0.00" occupancy="6.01" speed="-1.00" length="-1.00" nVehEntered="0"/>
   <interval begin="1200.00" end="1230.00" id="0" nVehContrib="5" flow="600.00" occupancy="28.55" speed="3.11" length="5.00" nVehEntered="5"/>
   <interval begin="1230.00" end="1260.00" id="0" nVehContrib="3" flow="360.00" occupancy="18.08" speed="3.75" length="5.00" nVehEntered="3"/>
   <interval begin="1260.00" end="1290.00" id="0" nVehContrib="4" flow="480.00" occupancy="23.57" speed="3.09" length="5.00" nVehEntered="4"/>
   <interval begin="1290.00" end="1320.00" id="0" nVehContrib="2" flow="240.00" occupancy="53.86" speed="1.66" length="5.00" nVehEntered="2"/>
   <interval begin="1320.00" end="1350.00" id="0" nVehContrib="3" flow="360.00" occupancy="18.67" speed="2.98" length="5.00" nVehEntered="3"/>
   <interval begin="1350.00" end="1380.00" id="0" nVehContrib="0" flow="0.00" occupancy="0.00" speed="-1.00" length="-1.00" nVehEntered="0"/>
   <interval begin="1380.00" end="1410.00" id="0" nVehContrib="3" flow="360.00" occupancy="20.45" speed="2.96" length="5.00" nVehEntered="3"/>
   <interval begin="1410.00" end="1440.00" id="0" nVehContrib="4" flow="480.00" occupancy="28.91" speed="2.98" length="5.00" nVehEntered="4"/>
   <interval begin="1440.00" end="1470.00" id="0" nVehContrib="5" flow="600.00" occupancy="20.81" speed="4.77" length="5.00" nVehEntered="5"/>
   <interval begin="1470.00" end="1500.00" id="0" nVehContrib="3" flow="360.00" occupancy="22.90" speed="2.80" length="5.00" nVehEntered="3"/>
   <interval begin="1500.00" end="1530.00" id="0" nVehContrib="5" flow="600.00" occupancy="25.33" speed="4.04" length="5.00" nVehEntered="5"/>
   <interval begin="1530.00" end="1560.00" id="0" nVehContrib="2" flow="240.00" occupancy="14.20" speed="3.34" length="5.00" nVehEntered="2"/>
   <interval begin="1560.00" end="1590.00" id="0" nVehContrib="3" flow="360.00" occupancy="19.08" speed="3.06" length="5.00" nVehEntered="3"/>
   <interval begin="1590.00" end="1620.00" id="0" nVehContrib="7" flow="840.00" occupancy="29.18" speed="5.13" length="5.00" nVehEntered="7"/>
   <interval begin="1620.00" end="1650.00" id="0" nVehContrib="4" flow="480.00" occupancy="24.19" speed="3.45" length="5.00" nVehEntered="4"/>
   <interval begin="1650.00" end="1680.00" id="0" nVehContrib="1" flow="120.00" occupancy="3.03" speed="4.13" length="5.00" nVehEntered="1"/>
   <interval begin="1680.00" end="1710.00" id="0" nVehContrib="4" flow="480.00" occupancy="27.46" speed="3.24" length="5.00" nVehEntered="4"/>
   <interval begin="1710.00" end="1740.00" id="0" nVehContrib="3" flow="360.00" occupancy="21.00" speed="2.79" length="5.00" nVehEntered="3"/>
   <interval begin="1740.00" end="1770.00" id="0" nVehContrib="5" flow="600.00" occupancy="25.93" speed="3.78" length="5.00" nVehEntered="5"/>
   <interval begin="1770.00" end="1800.00" id="0" nVehContrib="1" flow="120.00" occupancy="10.06" speed="1.66" length="5.00" nVehEntered="1"/>
   <interval begin="1800.00" end="1830.00" id="0" nVehContrib="6" flow="720.00" occupancy="21.90" speed="4.81" length="5.00" nVehEntered="6"/>
   <interval begin="1830.00" end="1860.00" id="0" nVehContrib="7" flow="840.00" occupancy="28.56" speed="5.16" length="5.00" nVehEntered="7"/>
   <interval begin="1860.00" end="1890.00" id="0" nVehContrib="3" flow="360.00" occupancy="6.10" speed="9.06" length="5.00" nVehEntered="3"/>
   <interval begin="1890.00" end="1920.00" id="0" nVehContrib="6" flow="720.00" occupancy="28.91" speed="4.52" length="5.00" nVehEntered="6"/>
   <interval begin="1920.00" end="1950.00" id="0" nVehContrib="3" flow="360.00" occupancy="5.98" speed="9.77" length="5.00" nVehEntered="3"/>
   <interval begin="1950.00" end="1980.00" id="0" nVehContrib="3" flow="360.00" occupancy="3.04" speed="16.46" length="5.00" nVehEntered="3"/>
   <interval begin="1980.00" end="2010.00" id="0" nVehContrib="1" flow="120.00" occupancy="1.00" speed="16.67" length="5.00" nVehEntered="1"/>
   <interval begin="2010.00" end="2040.00" id="0" nVehContrib="2" flow="240.00" occupancy="2.02" speed="16.51" length="5.00" nVehEntered="2"/>
   <interval begin="2040.00" end="2070.00" id="0" nVehContrib="3" flow="360.00" occupancy="3.14" speed="15.91" length="5.00" nVehEntered="3"/>
   <interval begin="2070.00" end="2100.00" id="0" nVehContrib="1" flow="120.00" occupancy="1.14" speed="14.58" length="5.00" nVehEntered="1"/>
   <interval begin="2100.00" end="2130.00" id="0" nVehContrib="2" flow="240.00" occupancy="2.03" speed="16.42" length="5.00" nVehEntered="2"/>
   <interval begin="2130.00" end="2160.00" id="0" nVehContrib="4" flow="480.00" occupancy="4.13" speed="16.16" length="5.00" nVehEntered="4"/>
   <interval begin="2160.00" end="2190.00" id="0" nVehContrib="1" flow="120.00" occupancy="1.01" speed="16.43" length="5.00" nVehEntered="1"/>
   <interval begin="2190.00" end="2220.00" id="0" nVehContrib="5" flow="600.00" occupancy="7.01" speed="12.81" length="5.00" nVehEntered="5"/>
   <interval begin="2220.00" end="2250.00" id="0" nVehContrib="2" flow="240.00" occupancy="2.89" speed="13.20" length="5.00" nVehEntered="2"/>
   <interval begin="2250.00" end="2280.00" id="0" nVehContrib="3" flow="360.00" occupancy="2.92" speed="16.13" length="5.00" nVehEntered="3"/>
   <interval begin="2280.00" end="2310.00" id="0" nVehContrib="4" flow="480.00" occupancy="4.16" speed="16.05" length="5.00" nVehEntered="4"/>
   <interval begin="2310.00" end="2340.00" id="0" nVehContrib="4" flow="480.00" occupancy="6.77" speed="10.71" length="5.00" nVehEntered="4"/>
   <interval begin="2340.00" end="2370.00" id="0" nVehContrib="2" flow="240.00" occupancy="3.00" speed="11.14" length="5.00" nVehEntered="2"/>
   <interval begin="2370.00" end="2400.00" id="0" nVehContrib="2" flow="240.00" occupancy="2.92" speed="11.83" length="5.00" nVehEntered="2"/>
   <interval begin="2400.00" end="2430.00" id="0" nVehContrib="2" flow="240.00" occupancy="3.98" speed="8.52" length="5.00" nVehEntered="2"/>
   <interval begin="2430.00" end="2460.00" id="0" nVehContrib="5" flow="600.00" occupancy="6.18" speed="13.78" length="5.00" nVehEntered="5"/>
   <interval begin="2460.00" end="2490.00" id="0" nVehContrib="1" flow="120.00" occupancy="1.01" speed="16.57" length="5.00" nVehEntered="1"/>
   <interval begin="2490.00" end="2520.00" id="0" nVehContrib="5" flow="600.00" occupancy="5.14" speed="16.23" length="5.00" nVehEntered="5"/>
   <interval begin="2520.00" end="2550.00" id="0" nVehContrib="1" flow="120.00" occupancy="1.00" speed="16.64" length="5.00" nVehEntered="1"/>
   <interval begin="2550.00" end="2580.00" id="0" nVehContrib="6" flow="720.00" occupancy="6.27" speed="15.98" length="5.00" nVehEntered="6"/>
   <interval begin="2580.00" end="2610.00" id="0" nVehContrib="4" flow="480.00" occupancy="8.03" speed="10.54" length="5.00" nVehEntered="4"/>
   <interval begin="2610.00" end="2640.00" id="0" nVehContrib="2" flow="240.00" occupancy="12.98" speed="2.59" length="5.00" nVehEntered="2"/>
   <interval begin="2640.00" end="2670.00" id="0" nVehContrib="2" flow="240.00" occupancy="10.75" speed="3.82" length="5.00" nVehEntered="2"/>
   <interval begin="2670.00" end="2700.00" id="0" nVehContrib="3" flow="360.00" occupancy="3.70" speed="13.66" length="5.00" nVehEntered="3"/>
   <interval begin="2700.00" end="2730.00" id="0" nVehContrib="2" flow="240.00" occupancy="2.86" speed="11.65" length="5.00" nVehEntered="2"/>
   <interval begin="2730.00" end="2760.00" id="0" nVehContrib="3" flow="360.00" occupancy="3.19" speed="15.69" length="5.00" nVehEntered="3"/>
   <interval begin="2760.00" end="2790.00" id="0" nVehContrib="4" flow="480.00" occupancy="5.01" speed="13.44" length="5.00" nVehEntered="4"/>
   <interval begin="2790.00" end="2820.00" id="0" nVehContrib="5" flow="600.00" occupancy="11.29" speed="8.16" length="5.00" nVehEntered="5"/>
   <interval begin="2820.00" end="2850.00" id="0" nVehContrib="2" flow="240.00" occupancy="3.34" speed="10.01" length="5.00" nVehEntered="2"/>
   <interval begin="2850.00" end="2880.00" id="0" nVehContrib="3" flow="360.00" occupancy="3.79" speed="13.56" length="5.00" nVehEntered="3"/>
   <interval begin="2880.00" end="2910.00" id="0" nVehContrib="3" flow="360.00" occupancy="3.65" speed="13.96" length="5.00" nVehEntered="3"/>
   <interval begin="2910.00" end="2940.00" id="0" nVehContrib="1" flow="120.00" occupancy="1.00" speed="16.65" length="5.00" nVehEntered="1"/>
   <interval begin="2940.00" end="2970.00" id="0" nVehContrib="4" flow="480.00" occupancy="5.00" speed="13.46" length="5.00" nVehEntered="4"/>
   <interval begin="2970.00" end="3000.00" id="0" nVehContrib="4" flow="480.00" occupancy="7.68" speed="9.92" length="5.00" nVehEntered="4"/>
   <interval begin="3000.00" end="3030.00" id="0" nVehContrib="0" flow="0.00" occupancy="0.00" speed="-1.00" length="-1.00" nVehEntered="0"/>
   <interval begin="3030.00" end="3060.00" id="0" nVehContrib="2" flow="240.00" occupancy="2.03" speed="16.40" length="5.00" nVehEntered="2"/>
   <interval begin="3060.00" end="3090.00" id="0" nVehContrib="1" flow="120.00" occupancy="1.40" speed="11.89" length="5.00" nVehEntered="1"/>
   <interval begin="3090.00" end="3120.00" id="0" nVehContrib="4" flow="480.00" occupancy="4.23" speed="15.78" length="5.00" nVehEntered="4"/>
   <interval begin="3120.00" end="3150.00" id="0" nVehContrib="4" flow="480.00" occupancy="14.94" speed="7.51" length="5.00" nVehEntered="4"/>
   <interval begin="3150.00" end="3180.00" id="0" nVehContrib="1" flow="120.00" occupancy="1.72" speed="9.69" length="5.00" nVehEntered="1"/>
   <interval begin="3180.00" end="3210.00" id="0" nVehContrib="3" flow="360.00" occupancy="3.69" speed="13.94" length="5.00" nVehEntered="3"/>
   <interval begin="3210.00" end="3240.00" id="0" nVehContrib="3" flow="360.00" occupancy="11.70" speed="6.16" length="5.00" nVehEntered="3"/>
   <interval begin="3240.00" end="3270.00" id="0" nVehContrib="1" flow="120.00" occupancy="1.10" speed="15.16" length="5.00" nVehEntered="1"/>
   <interval begin="3270.00" end="3300.00" id="0" nVehContrib="5" flow="600.00" occupancy="7.44" speed="12.03" length="5.00" nVehEntered="5"/>
   <interval begin="3300.00" end="3330.00" id="0" nVehContrib="5" flow="600.00" occupancy="5.52" speed="15.21" length="5.00" nVehEntered="5"/>
   <interval begin="3330.00" end="3360.00" id="0" nVehContrib="4" flow="480.00" occupancy="4.48" speed="15.02" length="5.00" nVehEntered="4"/>
   <interval begin="3360.00" end="3390.00" id="0" nVehContrib="4" flow="480.00" occupancy="4.90" speed="14.01" length="5.00" nVehEntered="4"/>
   <interval begin="3390.00" end="3420.00" id="0" nVehContrib="0" flow="0.00" occupancy="0.00" speed="-1.00" length="-1.00" nVehEntered="0"/>
   <interval begin="3420.00" end="3450.00" id="0" nVehContrib="5" flow="600.00" occupancy="5.92" speed="14.37" length="5.00" nVehEntered="5"/>
   <interval begin="3450.00" end="3478.00" id="0" nVehContrib="6" flow="771.43" occupancy="8.72" speed="13.08" length="5.00" nVehEntered="6"/>
</detector>
