<?xml version="1.0" encoding="UTF-8"?>

<!-- generated on Sun 04 Dec 2016 08:58:02 PM EST by SUMO gui Version 0.25.0
<?xml version="1.0" encoding="UTF-8"?>

<configuration xmlns:xsi="http://www.w3.org/2001/XMLSchema-instance" xsi:noNamespaceSchemaLocation="http://sumo.dlr.de/xsd/sumo-gui.exeConfiguration.xsd">

    <input>
        <net-file value="data/cross.net.xml"/>
        <route-files value="data/cross.rou.xml"/>
        <additional-files value="data/cross.det.xml"/>
    </input>

    <output>
        <tripinfo-output value="tripinfo.xml"/>
        <save-state.prefix value="data/state"/>
    </output>

    <time>
        <begin value="0"/>
    </time>

    <report>
        <verbose value="true"/>
        <no-step-log value="true"/>
    </report>

    <emissions>
        <phemlight-path value="data/./PHEMlight/"/>
    </emissions>

    <traci_server>
        <remote-port value="8873"/>
    </traci_server>

</configuration>
-->

<detector xmlns:xsi="http://www.w3.org/2001/XMLSchema-instance" xsi:noNamespaceSchemaLocation="http://sumo.dlr.de/xsd/det_e1_file.xsd">
   <interval begin="0.00" end="30.00" id="0" nVehContrib="0" flow="0.00" occupancy="0.00" speed="-1.00" length="-1.00" nVehEntered="0"/>
   <interval begin="30.00" end="60.00" id="0" nVehContrib="1" flow="120.00" occupancy="1.02" speed="16.37" length="5.00" nVehEntered="1"/>
   <interval begin="60.00" end="90.00" id="0" nVehContrib="3" flow="360.00" occupancy="3.26" speed="15.37" length="5.00" nVehEntered="3"/>
   <interval begin="90.00" end="120.00" id="0" nVehContrib="3" flow="360.00" occupancy="3.42" speed="14.86" length="5.00" nVehEntered="3"/>
   <interval begin="120.00" end="150.00" id="0" nVehContrib="3" flow="360.00" occupancy="3.18" speed="15.77" length="5.00" nVehEntered="3"/>
   <interval begin="150.00" end="180.00" id="0" nVehContrib="1" flow="120.00" occupancy="1.02" speed="16.40" length="5.00" nVehEntered="1"/>
   <interval begin="180.00" end="210.00" id="0" nVehContrib="2" flow="240.00" occupancy="2.03" speed="16.42" length="5.00" nVehEntered="2"/>
   <interval begin="210.00" end="240.00" id="0" nVehContrib="0" flow="0.00" occupancy="0.00" speed="-1.00" length="-1.00" nVehEntered="0"/>
   <interval begin="240.00" end="270.00" id="0" nVehContrib="3" flow="360.00" occupancy="3.22" speed="15.63" length="5.00" nVehEntered="3"/>
   <interval begin="270.00" end="300.00" id="0" nVehContrib="2" flow="240.00" occupancy="2.05" speed="16.27" length="5.00" nVehEntered="2"/>
   <interval begin="300.00" end="330.00" id="0" nVehContrib="4" flow="480.00" occupancy="4.04" speed="16.50" length="5.00" nVehEntered="4"/>
   <interval begin="330.00" end="360.00" id="0" nVehContrib="3" flow="360.00" occupancy="3.21" speed="15.67" length="5.00" nVehEntered="3"/>
   <interval begin="360.00" end="390.00" id="0" nVehContrib="2" flow="240.00" occupancy="2.50" speed="13.37" length="5.00" nVehEntered="2"/>
   <interval begin="390.00" end="420.00" id="0" nVehContrib="4" flow="480.00" occupancy="4.49" speed="15.09" length="5.00" nVehEntered="4"/>
   <interval begin="420.00" end="450.00" id="0" nVehContrib="3" flow="360.00" occupancy="4.94" speed="10.46" length="5.00" nVehEntered="3"/>
   <interval begin="450.00" end="480.00" id="0" nVehContrib="2" flow="240.00" occupancy="2.78" speed="12.89" length="5.00" nVehEntered="2"/>
   <interval begin="480.00" end="510.00" id="0" nVehContrib="2" flow="240.00" occupancy="2.15" speed="15.56" length="5.00" nVehEntered="2"/>
   <interval begin="510.00" end="540.00" id="0" nVehContrib="5" flow="600.00" occupancy="5.64" speed="15.06" length="5.00" nVehEntered="5"/>
   <interval begin="540.00" end="570.00" id="0" nVehContrib="4" flow="480.00" occupancy="6.22" speed="10.75" length="5.00" nVehEntered="4"/>
   <interval begin="570.00" end="600.00" id="0" nVehContrib="4" flow="480.00" occupancy="10.22" speed="6.90" length="5.00" nVehEntered="4"/>
   <interval begin="600.00" end="630.00" id="0" nVehContrib="3" flow="360.00" occupancy="18.73" speed="3.00" length="5.00" nVehEntered="3"/>
   <interval begin="630.00" end="660.00" id="0" nVehContrib="3" flow="360.00" occupancy="19.08" speed="2.98" length="5.00" nVehEntered="3"/>
   <interval begin="660.00" end="690.00" id="0" nVehContrib="3" flow="360.00" occupancy="18.06" speed="3.47" length="5.00" nVehEntered="3"/>
   <interval begin="690.00" end="720.00" id="0" nVehContrib="3" flow="360.00" occupancy="19.35" speed="3.02" length="5.00" nVehEntered="3"/>
   <interval begin="720.00" end="750.00" id="0" nVehContrib="3" flow="360.00" occupancy="20.74" speed="2.87" length="5.00" nVehEntered="3"/>
   <interval begin="750.00" end="780.00" id="0" nVehContrib="2" flow="240.00" occupancy="15.41" speed="2.40" length="5.00" nVehEntered="2"/>
   <interval begin="780.00" end="810.00" id="0" nVehContrib="2" flow="240.00" occupancy="4.92" speed="7.09" length="5.00" nVehEntered="2"/>
   <interval begin="810.00" end="840.00" id="0" nVehContrib="3" flow="360.00" occupancy="7.37" speed="7.11" length="5.00" nVehEntered="3"/>
   <interval begin="840.00" end="870.00" id="0" nVehContrib="2" flow="240.00" occupancy="2.83" speed="11.86" length="5.00" nVehEntered="2"/>
   <interval begin="870.00" end="900.00" id="0" nVehContrib="3" flow="360.00" occupancy="3.08" speed="16.23" length="5.00" nVehEntered="3"/>
   <interval begin="900.00" end="930.00" id="0" nVehContrib="3" flow="360.00" occupancy="3.27" speed="15.34" length="5.00" nVehEntered="3"/>
   <interval begin="930.00" end="960.00" id="0" nVehContrib="0" flow="0.00" occupancy="0.00" speed="-1.00" length="-1.00" nVehEntered="0"/>
   <interval begin="960.00" end="990.00" id="0" nVehContrib="3" flow="360.00" occupancy="3.03" speed="16.49" length="5.00" nVehEntered="3"/>
   <interval begin="990.00" end="1020.00" id="0" nVehContrib="3" flow="360.00" occupancy="3.07" speed="16.31" length="5.00" nVehEntered="3"/>
   <interval begin="1020.00" end="1050.00" id="0" nVehContrib="5" flow="600.00" occupancy="6.66" speed="12.65" length="5.00" nVehEntered="5"/>
   <interval begin="1050.00" end="1080.00" id="0" nVehContrib="4" flow="480.00" occupancy="19.52" speed="5.29" length="5.00" nVehEntered="4"/>
   <interval begin="1080.00" end="1110.00" id="0" nVehContrib="4" flow="480.00" occupancy="10.05" speed="8.06" length="5.00" nVehEntered="4"/>
   <interval begin="1110.00" end="1140.00" id="0" nVehContrib="2" flow="240.00" occupancy="2.16" speed="15.43" length="5.00" nVehEntered="2"/>
   <interval begin="1140.00" end="1170.00" id="0" nVehContrib="0" flow="0.00" occupancy="0.00" speed="-1.00" length="-1.00" nVehEntered="0"/>
   <interval begin="1170.00" end="1200.00" id="0" nVehContrib="0" flow="0.00" occupancy="0.00" speed="-1.00" length="-1.00" nVehEntered="0"/>
   <interval begin="1200.00" end="1230.00" id="0" nVehContrib="5" flow="600.00" occupancy="5.07" speed="16.44" length="5.00" nVehEntered="5"/>
   <interval begin="1230.00" end="1260.00" id="0" nVehContrib="5" flow="600.00" occupancy="6.09" speed="14.33" length="5.00" nVehEntered="5"/>
   <interval begin="1260.00" end="1290.00" id="0" nVehContrib="3" flow="360.00" occupancy="4.32" speed="12.24" length="5.00" nVehEntered="3"/>
   <interval begin="1290.00" end="1320.00" id="0" nVehContrib="2" flow="240.00" occupancy="2.02" speed="16.51" length="5.00" nVehEntered="2"/>
   <interval begin="1320.00" end="1350.00" id="0" nVehContrib="2" flow="240.00" occupancy="2.05" speed="16.26" length="5.00" nVehEntered="2"/>
   <interval begin="1350.00" end="1380.00" id="0" nVehContrib="1" flow="120.00" occupancy="1.02" speed="16.30" length="5.00" nVehEntered="1"/>
   <interval begin="1380.00" end="1410.00" id="0" nVehContrib="1" flow="120.00" occupancy="1.01" speed="16.45" length="5.00" nVehEntered="1"/>
   <interval begin="1410.00" end="1440.00" id="0" nVehContrib="4" flow="480.00" occupancy="4.54" speed="15.96" length="5.00" nVehEntered="4"/>
   <interval begin="1440.00" end="1470.00" id="0" nVehContrib="4" flow="480.00" occupancy="7.22" speed="9.30" length="5.00" nVehEntered="4"/>
   <interval begin="1470.00" end="1500.00" id="0" nVehContrib="4" flow="480.00" occupancy="28.51" speed="3.92" length="5.00" nVehEntered="4"/>
   <interval begin="1500.00" end="1530.00" id="0" nVehContrib="2" flow="240.00" occupancy="19.15" speed="2.23" length="5.00" nVehEntered="2"/>
   <interval begin="1530.00" end="1560.00" id="0" nVehContrib="3" flow="360.00" occupancy="17.65" speed="3.34" length="5.00" nVehEntered="3"/>
   <interval begin="1560.00" end="1590.00" id="0" nVehContrib="3" flow="360.00" occupancy="17.46" speed="3.32" length="5.00" nVehEntered="3"/>
   <interval begin="1590.00" end="1620.00" id="0" nVehContrib="2" flow="240.00" occupancy="14.76" speed="2.88" length="5.00" nVehEntered="2"/>
   <interval begin="1620.00" end="1650.00" id="0" nVehContrib="8" flow="960.00" occupancy="25.57" speed="5.46" length="5.00" nVehEntered="8"/>
   <interval begin="1650.00" end="1680.00" id="0" nVehContrib="5" flow="600.00" occupancy="29.88" speed="4.33" length="5.00" nVehEntered="5"/>
   <interval begin="1680.00" end="1710.00" id="0" nVehContrib="3" flow="360.00" occupancy="3.47" speed="14.68" length="5.00" nVehEntered="3"/>
   <interval begin="1710.00" end="1740.00" id="0" nVehContrib="5" flow="600.00" occupancy="22.92" speed="6.15" length="5.00" nVehEntered="5"/>
   <interval begin="1740.00" end="1770.00" id="0" nVehContrib="3" flow="360.00" occupancy="3.22" speed="15.61" length="5.00" nVehEntered="3"/>
   <interval begin="1770.00" end="1800.00" id="0" nVehContrib="5" flow="600.00" occupancy="5.78" speed="14.75" length="5.00" nVehEntered="5"/>
   <interval begin="1800.00" end="1830.00" id="0" nVehContrib="4" flow="480.00" occupancy="12.89" speed="10.17" length="5.00" nVehEntered="4"/>
   <interval begin="1830.00" end="1860.00" id="0" nVehContrib="3" flow="360.00" occupancy="3.99" speed="12.79" length="5.00" nVehEntered="3"/>
   <interval begin="1860.00" end="1890.00" id="0" nVehContrib="5" flow="600.00" occupancy="5.48" speed="15.42" length="5.00" nVehEntered="5"/>
   <interval begin="1890.00" end="1920.00" id="0" nVehContrib="4" flow="480.00" occupancy="9.09" speed="7.65" length="5.00" nVehEntered="4"/>
   <interval begin="1920.00" end="1950.00" id="0" nVehContrib="3" flow="360.00" occupancy="3.09" speed="16.19" length="5.00" nVehEntered="3"/>
   <interval begin="1950.00" end="1980.00" id="0" nVehContrib="3" flow="360.00" occupancy="3.01" speed="16.59" length="5.00" nVehEntered="3"/>
   <interval begin="1980.00" end="2010.00" id="0" nVehContrib="1" flow="120.00" occupancy="1.01" speed="16.44" length="5.00" nVehEntered="1"/>
   <interval begin="2010.00" end="2040.00" id="0" nVehContrib="2" flow="240.00" occupancy="2.03" speed="16.40" length="5.00" nVehEntered="2"/>
   <interval begin="2040.00" end="2070.00" id="0" nVehContrib="3" flow="360.00" occupancy="3.11" speed="16.08" length="5.00" nVehEntered="3"/>
   <interval begin="2070.00" end="2100.00" id="0" nVehContrib="1" flow="120.00" occupancy="1.03" speed="16.20" length="5.00" nVehEntered="1"/>
   <interval begin="2100.00" end="2130.00" id="0" nVehContrib="2" flow="240.00" occupancy="2.06" speed="16.16" length="5.00" nVehEntered="2"/>
   <interval begin="2130.00" end="2160.00" id="0" nVehContrib="4" flow="480.00" occupancy="4.48" speed="14.95" length="5.00" nVehEntered="4"/>
   <interval begin="2160.00" end="2190.00" id="0" nVehContrib="1" flow="120.00" occupancy="1.02" speed="16.34" length="5.00" nVehEntered="1"/>
   <interval begin="2190.00" end="2220.00" id="0" nVehContrib="5" flow="600.00" occupancy="6.15" speed="14.00" length="5.00" nVehEntered="5"/>
   <interval begin="2220.00" end="2250.00" id="0" nVehContrib="2" flow="240.00" occupancy="3.55" speed="11.48" length="5.00" nVehEntered="2"/>
   <interval begin="2250.00" end="2280.00" id="0" nVehContrib="3" flow="360.00" occupancy="3.06" speed="16.35" length="5.00" nVehEntered="3"/>
   <interval begin="2280.00" end="2310.00" id="0" nVehContrib="4" flow="480.00" occupancy="4.09" speed="16.30" length="5.00" nVehEntered="4"/>
   <interval begin="2310.00" end="2340.00" id="0" nVehContrib="4" flow="480.00" occupancy="5.27" speed="12.66" length="5.00" nVehEntered="4"/>
   <interval begin="2340.00" end="2370.00" id="0" nVehContrib="2" flow="240.00" occupancy="2.84" speed="12.04" length="5.00" nVehEntered="2"/>
   <interval begin="2370.00" end="2400.00" id="0" nVehContrib="2" flow="240.00" occupancy="2.25" speed="14.96" length="5.00" nVehEntered="2"/>
   <interval begin="2400.00" end="2430.00" id="0" nVehContrib="2" flow="240.00" occupancy="2.36" speed="14.12" length="5.00" nVehEntered="2"/>
   <interval begin="2430.00" end="2460.00" id="0" nVehContrib="5" flow="600.00" occupancy="5.76" speed="14.55" length="5.00" nVehEntered="5"/>
   <interval begin="2460.00" end="2490.00" id="0" nVehContrib="1" flow="120.00" occupancy="1.02" speed="16.41" length="5.00" nVehEntered="1"/>
   <interval begin="2490.00" end="2520.00" id="0" nVehContrib="5" flow="600.00" occupancy="5.50" speed="15.28" length="5.00" nVehEntered="5"/>
   <interval begin="2520.00" end="2550.00" id="0" nVehContrib="1" flow="120.00" occupancy="1.16" speed="14.31" length="5.00" nVehEntered="1"/>
   <interval begin="2550.00" end="2580.00" id="0" nVehContrib="6" flow="720.00" occupancy="10.47" speed="10.44" length="5.00" nVehEntered="6"/>
   <interval begin="2580.00" end="2610.00" id="0" nVehContrib="3" flow="360.00" occupancy="21.81" speed="2.96" length="5.00" nVehEntered="3"/>
   <interval begin="2610.00" end="2640.00" id="0" nVehContrib="2" flow="240.00" occupancy="16.25" speed="2.24" length="5.00" nVehEntered="2"/>
   <interval begin="2640.00" end="2670.00" id="0" nVehContrib="3" flow="360.00" occupancy="20.30" speed="2.92" length="5.00" nVehEntered="3"/>
   <interval begin="2670.00" end="2700.00" id="0" nVehContrib="3" flow="360.00" occupancy="19.07" speed="3.17" length="5.00" nVehEntered="3"/>
   <interval begin="2700.00" end="2730.00" id="0" nVehContrib="2" flow="240.00" occupancy="15.21" speed="2.53" length="5.00" nVehEntered="2"/>
   <interval begin="2730.00" end="2760.00" id="0" nVehContrib="3" flow="360.00" occupancy="17.45" speed="3.59" length="5.00" nVehEntered="3"/>
   <interval begin="2760.00" end="2790.00" id="0" nVehContrib="3" flow="360.00" occupancy="17.91" speed="3.56" length="5.00" nVehEntered="3"/>
   <interval begin="2790.00" end="2820.00" id="0" nVehContrib="6" flow="720.00" occupancy="12.15" speed="10.01" length="5.00" nVehEntered="6"/>
   <interval begin="2820.00" end="2850.00" id="0" nVehContrib="2" flow="240.00" occupancy="2.47" speed="14.02" length="5.00" nVehEntered="2"/>
   <interval begin="2850.00" end="2880.00" id="0" nVehContrib="3" flow="360.00" occupancy="3.13" speed="16.00" length="5.00" nVehEntered="3"/>
   <interval begin="2880.00" end="2910.00" id="0" nVehContrib="3" flow="360.00" occupancy="3.09" speed="16.21" length="5.00" nVehEntered="3"/>
   <interval begin="2910.00" end="2940.00" id="0" nVehContrib="1" flow="120.00" occupancy="1.02" speed="16.34" length="5.00" nVehEntered="1"/>
   <interval begin="2940.00" end="2970.00" id="0" nVehContrib="3" flow="360.00" occupancy="3.46" speed="14.60" length="5.00" nVehEntered="3"/>
   <interval begin="2970.00" end="3000.00" id="0" nVehContrib="5" flow="600.00" occupancy="6.21" speed="13.67" length="5.00" nVehEntered="5"/>
   <interval begin="3000.00" end="3030.00" id="0" nVehContrib="0" flow="0.00" occupancy="0.00" speed="-1.00" length="-1.00" nVehEntered="0"/>
   <interval begin="3030.00" end="3060.00" id="0" nVehContrib="3" flow="360.00" occupancy="3.11" speed="16.07" length="5.00" nVehEntered="3"/>
   <interval begin="3060.00" end="3090.00" id="0" nVehContrib="0" flow="0.00" occupancy="0.00" speed="-1.00" length="-1.00" nVehEntered="0"/>
   <interval begin="3090.00" end="3120.00" id="0" nVehContrib="4" flow="480.00" occupancy="4.07" speed="16.37" length="5.00" nVehEntered="4"/>
   <interval begin="3120.00" end="3150.00" id="0" nVehContrib="4" flow="480.00" occupancy="7.11" speed="10.55" length="5.00" nVehEntered="4"/>
   <interval begin="3150.00" end="3180.00" id="0" nVehContrib="1" flow="120.00" occupancy="1.00" speed="16.59" length="5.00" nVehEntered="1"/>
   <interval begin="3180.00" end="3210.00" id="0" nVehContrib="3" flow="360.00" occupancy="3.25" speed="15.46" length="5.00" nVehEntered="3"/>
   <interval begin="3210.00" end="3240.00" id="0" nVehContrib="3" flow="360.00" occupancy="3.22" speed="15.55" length="5.00" nVehEntered="3"/>
   <interval begin="3240.00" end="3270.00" id="0" nVehContrib="1" flow="120.00" occupancy="1.01" speed="16.53" length="5.00" nVehEntered="1"/>
   <interval begin="3270.00" end="3300.00" id="0" nVehContrib="5" flow="600.00" occupancy="5.45" speed="15.50" length="5.00" nVehEntered="5"/>
   <interval begin="3300.00" end="3330.00" id="0" nVehContrib="4" flow="480.00" occupancy="5.92" speed="11.58" length="5.00" nVehEntered="4"/>
   <interval begin="3330.00" end="3360.00" id="0" nVehContrib="5" flow="600.00" occupancy="24.50" speed="5.75" length="5.00" nVehEntered="5"/>
   <interval begin="3360.00" end="3390.00" id="0" nVehContrib="4" flow="480.00" occupancy="5.28" speed="13.13" length="5.00" nVehEntered="4"/>
   <interval begin="3390.00" end="3420.00" id="0" nVehContrib="0" flow="0.00" occupancy="0.00" speed="-1.00" length="-1.00" nVehEntered="0"/>
   <interval begin="3420.00" end="3450.00" id="0" nVehContrib="5" flow="600.00" occupancy="5.03" speed="16.58" length="5.00" nVehEntered="5"/>
   <interval begin="3450.00" end="3480.00" id="0" nVehContrib="6" flow="720.00" occupancy="6.96" speed="14.66" length="5.00" nVehEntered="6"/>
   <interval begin="3480.00" end="3510.00" id="0" nVehContrib="4" flow="480.00" occupancy="9.01" speed="7.90" length="5.00" nVehEntered="4"/>
   <interval begin="3510.00" end="3540.00" id="0" nVehContrib="3" flow="360.00" occupancy="16.20" speed="3.80" length="5.00" nVehEntered="3"/>
   <interval begin="3540.00" end="3570.00" id="0" nVehContrib="4" flow="480.00" occupancy="21.19" speed="5.39" length="5.00" nVehEntered="4"/>
   <interval begin="3570.00" end="3600.00" id="0" nVehContrib="4" flow="480.00" occupancy="4.42" speed="15.16" length="5.00" nVehEntered="4"/>
   <interval begin="3600.00" end="3630.00" id="0" nVehContrib="3" flow="360.00" occupancy="3.07" speed="16.31" length="5.00" nVehEntered="3"/>
   <interval begin="3630.00" end="3660.00" id="0" nVehContrib="3" flow="360.00" occupancy="3.03" speed="16.50" length="5.00" nVehEntered="3"/>
   <interval begin="3660.00" end="3690.00" id="0" nVehContrib="4" flow="480.00" occupancy="4.26" speed="15.77" length="5.00" nVehEntered="4"/>
   <interval begin="3690.00" end="3720.00" id="0" nVehContrib="5" flow="600.00" occupancy="8.97" speed="10.48" length="5.00" nVehEntered="5"/>
   <interval begin="3720.00" end="3750.00" id="0" nVehContrib="3" flow="360.00" occupancy="21.73" speed="2.97" length="5.00" nVehEntered="3"/>
   <interval begin="3750.00" end="3780.00" id="0" nVehContrib="3" flow="360.00" occupancy="20.16" speed="2.98" length="5.00" nVehEntered="3"/>
   <interval begin="3780.00" end="3810.00" id="0" nVehContrib="6" flow="720.00" occupancy="25.67" speed="4.89" length="5.00" nVehEntered="6"/>
   <interval begin="3810.00" end="3840.00" id="0" nVehContrib="4" flow="480.00" occupancy="8.52" speed="10.24" length="5.00" nVehEntered="4"/>
   <interval begin="3840.00" end="3870.00" id="0" nVehContrib="4" flow="480.00" occupancy="10.72" speed="9.57" length="5.00" nVehEntered="4"/>
   <interval begin="3870.00" end="3900.00" id="0" nVehContrib="3" flow="360.00" occupancy="3.04" speed="16.45" length="5.00" nVehEntered="3"/>
   <interval begin="3900.00" end="3930.00" id="0" nVehContrib="2" flow="240.00" occupancy="2.02" speed="16.54" length="5.00" nVehEntered="2"/>
   <interval begin="3930.00" end="3960.00" id="0" nVehContrib="3" flow="360.00" occupancy="3.45" speed="14.73" length="5.00" nVehEntered="3"/>
   <interval begin="3960.00" end="3990.00" id="0" nVehContrib="4" flow="480.00" occupancy="4.22" speed="15.81" length="5.00" nVehEntered="4"/>
   <interval begin="3990.00" end="4020.00" id="0" nVehContrib="5" flow="600.00" occupancy="6.01" speed="14.15" length="5.00" nVehEntered="5"/>
   <interval begin="4020.00" end="4050.00" id="0" nVehContrib="4" flow="480.00" occupancy="24.11" speed="3.72" length="5.00" nVehEntered="4"/>
   <interval begin="4050.00" end="4080.00" id="0" nVehContrib="3" flow="360.00" occupancy="19.86" speed="2.82" length="5.00" nVehEntered="3"/>
   <interval begin="4080.00" end="4110.00" id="0" nVehContrib="4" flow="480.00" occupancy="21.74" speed="3.87" length="5.00" nVehEntered="4"/>
   <interval begin="4110.00" end="4140.00" id="0" nVehContrib="5" flow="600.00" occupancy="53.91" speed="6.63" length="5.00" nVehEntered="5"/>
   <interval begin="4140.00" end="4170.00" id="0" nVehContrib="6" flow="720.00" occupancy="37.98" speed="4.80" length="5.00" nVehEntered="6"/>
   <interval begin="4170.00" end="4200.00" id="0" nVehContrib="3" flow="360.00" occupancy="4.27" speed="11.87" length="5.00" nVehEntered="3"/>
   <interval begin="4200.00" end="4230.00" id="0" nVehContrib="4" flow="480.00" occupancy="4.13" speed="16.16" length="5.00" nVehEntered="4"/>
   <interval begin="4230.00" end="4260.00" id="0" nVehContrib="5" flow="600.00" occupancy="7.95" speed="11.92" length="5.00" nVehEntered="5"/>
   <interval begin="4260.00" end="4290.00" id="0" nVehContrib="2" flow="240.00" occupancy="14.32" speed="8.92" length="5.00" nVehEntered="2"/>
   <interval begin="4290.00" end="4320.00" id="0" nVehContrib="5" flow="600.00" occupancy="5.89" speed="14.44" length="5.00" nVehEntered="5"/>
   <interval begin="4320.00" end="4350.00" id="0" nVehContrib="4" flow="480.00" occupancy="7.31" speed="10.26" length="5.00" nVehEntered="4"/>
   <interval begin="4350.00" end="4380.00" id="0" nVehContrib="3" flow="360.00" occupancy="18.41" speed="3.34" length="5.00" nVehEntered="3"/>
   <interval begin="4380.00" end="4410.00" id="0" nVehContrib="1" flow="120.00" occupancy="11.39" speed="1.46" length="5.00" nVehEntered="1"/>
   <interval begin="4410.00" end="4440.00" id="0" nVehContrib="4" flow="480.00" occupancy="4.59" speed="15.05" length="5.00" nVehEntered="4"/>
   <interval begin="4440.00" end="4470.00" id="0" nVehContrib="5" flow="600.00" occupancy="6.28" speed="13.53" length="5.00" nVehEntered="5"/>
   <interval begin="4470.00" end="4500.00" id="0" nVehContrib="5" flow="600.00" occupancy="5.91" speed="15.29" length="5.00" nVehEntered="5"/>
   <interval begin="4500.00" end="4530.00" id="0" nVehContrib="2" flow="240.00" occupancy="2.42" speed="12.36" length="5.00" nVehEntered="2"/>
   <interval begin="4530.00" end="4560.00" id="0" nVehContrib="3" flow="360.00" occupancy="4.14" speed="14.93" length="5.00" nVehEntered="3"/>
   <interval begin="4560.00" end="4590.00" id="0" nVehContrib="4" flow="480.00" occupancy="4.22" speed="13.50" length="5.00" nVehEntered="4"/>
   <interval begin="4590.00" end="4620.00" id="0" nVehContrib="1" flow="120.00" occupancy="1.65" speed="10.10" length="5.00" nVehEntered="1"/>
   <interval begin="4620.00" end="4650.00" id="0" nVehContrib="5" flow="600.00" occupancy="6.86" speed="12.45" length="5.00" nVehEntered="5"/>
   <interval begin="4650.00" end="4680.00" id="0" nVehContrib="4" flow="480.00" occupancy="4.09" speed="16.32" length="5.00" nVehEntered="4"/>
   <interval begin="4680.00" end="4710.00" id="0" nVehContrib="5" flow="600.00" occupancy="6.82" speed="12.58" length="5.00" nVehEntered="5"/>
   <interval begin="4710.00" end="4740.00" id="0" nVehContrib="3" flow="360.00" occupancy="4.59" speed="11.13" length="5.00" nVehEntered="3"/>
   <interval begin="4740.00" end="4770.00" id="0" nVehContrib="0" flow="0.00" occupancy="0.00" speed="-1.00" length="-1.00" nVehEntered="0"/>
   <interval begin="4770.00" end="4800.00" id="0" nVehContrib="6" flow="720.00" occupancy="8.98" speed="12.35" length="5.00" nVehEntered="6"/>
   <interval begin="4800.00" end="4830.00" id="0" nVehContrib="1" flow="120.00" occupancy="1.39" speed="11.98" length="5.00" nVehEntered="1"/>
   <interval begin="4830.00" end="4860.00" id="0" nVehContrib="5" flow="600.00" occupancy="8.28" speed="11.49" length="5.00" nVehEntered="5"/>
   <interval begin="4860.00" end="4890.00" id="0" nVehContrib="3" flow="360.00" occupancy="21.41" speed="2.72" length="5.00" nVehEntered="3"/>
   <interval begin="4890.00" end="4920.00" id="0" nVehContrib="1" flow="120.00" occupancy="10.02" speed="1.66" length="5.00" nVehEntered="1"/>
   <interval begin="4920.00" end="4950.00" id="0" nVehContrib="2" flow="240.00" occupancy="3.20" speed="10.43" length="5.00" nVehEntered="2"/>
   <interval begin="4950.00" end="4980.00" id="0" nVehContrib="2" flow="240.00" occupancy="2.16" speed="15.54" length="5.00" nVehEntered="2"/>
   <interval begin="4980.00" end="5010.00" id="0" nVehContrib="0" flow="0.00" occupancy="0.00" speed="-1.00" length="-1.00" nVehEntered="0"/>
   <interval begin="5010.00" end="5040.00" id="0" nVehContrib="0" flow="0.00" occupancy="0.00" speed="-1.00" length="-1.00" nVehEntered="0"/>
   <interval begin="5040.00" end="5070.00" id="0" nVehContrib="1" flow="120.00" occupancy="1.00" speed="16.60" length="5.00" nVehEntered="1"/>
   <interval begin="5070.00" end="5100.00" id="0" nVehContrib="2" flow="240.00" occupancy="2.13" speed="15.69" length="5.00" nVehEntered="2"/>
   <interval begin="5100.00" end="5130.00" id="0" nVehContrib="2" flow="240.00" occupancy="2.03" speed="16.42" length="5.00" nVehEntered="2"/>
   <interval begin="5130.00" end="5160.00" id="0" nVehContrib="3" flow="360.00" occupancy="3.04" speed="16.46" length="5.00" nVehEntered="3"/>
   <interval begin="5160.00" end="5190.00" id="0" nVehContrib="0" flow="0.00" occupancy="0.00" speed="-1.00" length="-1.00" nVehEntered="0"/>
   <interval begin="5190.00" end="5220.00" id="0" nVehContrib="3" flow="360.00" occupancy="3.05" speed="16.41" length="5.00" nVehEntered="3"/>
   <interval begin="5220.00" end="5250.00" id="0" nVehContrib="5" flow="600.00" occupancy="5.26" speed="15.90" length="5.00" nVehEntered="5"/>
   <interval begin="5250.00" end="5280.00" id="0" nVehContrib="6" flow="720.00" occupancy="13.48" speed="8.15" length="5.00" nVehEntered="6"/>
   <interval begin="5280.00" end="5310.00" id="0" nVehContrib="1" flow="120.00" occupancy="1.44" speed="11.57" length="5.00" nVehEntered="1"/>
   <interval begin="5310.00" end="5340.00" id="0" nVehContrib="5" flow="600.00" occupancy="23.83" speed="5.02" length="5.00" nVehEntered="5"/>
   <interval begin="5340.00" end="5370.00" id="0" nVehContrib="3" flow="360.00" occupancy="19.13" speed="3.04" length="5.00" nVehEntered="3"/>
   <interval begin="5370.00" end="5400.00" id="0" nVehContrib="2" flow="240.00" occupancy="16.36" speed="2.20" length="5.00" nVehEntered="2"/>
   <interval begin="5400.00" end="5430.00" id="0" nVehContrib="2" flow="240.00" occupancy="74.26" speed="1.77" length="5.00" nVehEntered="2"/>
   <interval begin="5430.00" end="5460.00" id="0" nVehContrib="2" flow="240.00" occupancy="15.32" speed="2.66" length="5.00" nVehEntered="2"/>
   <interval begin="5460.00" end="5481.00" id="0" nVehContrib="5" flow="857.14" occupancy="23.14" speed="5.79" length="5.00" nVehEntered="5"/>
</detector>
