<?xml version="1.0" encoding="UTF-8"?>

<!-- generated on Thu 01 Dec 2016 10:46:23 PM EST by SUMO gui Version 0.25.0
<?xml version="1.0" encoding="UTF-8"?>

<configuration xmlns:xsi="http://www.w3.org/2001/XMLSchema-instance" xsi:noNamespaceSchemaLocation="http://sumo.dlr.de/xsd/sumo-gui.exeConfiguration.xsd">

    <input>
        <net-file value="data/cross.net.xml"/>
        <route-files value="data/cross.rou.xml"/>
        <additional-files value="data/cross.det.xml"/>
    </input>

    <output>
        <tripinfo-output value="tripinfo.xml"/>
        <save-state.prefix value="data/state"/>
    </output>

    <time>
        <begin value="0"/>
    </time>

    <report>
        <verbose value="true"/>
        <no-step-log value="true"/>
    </report>

    <emissions>
        <phemlight-path value="data/./PHEMlight/"/>
    </emissions>

    <traci_server>
        <remote-port value="8873"/>
    </traci_server>

</configuration>
-->

<detector xmlns:xsi="http://www.w3.org/2001/XMLSchema-instance" xsi:noNamespaceSchemaLocation="http://sumo.dlr.de/xsd/det_e1_file.xsd">
   <interval begin="0.00" end="30.00" id="0" nVehContrib="0" flow="0.00" occupancy="0.00" speed="-1.00" length="-1.00" nVehEntered="0"/>
   <interval begin="30.00" end="60.00" id="0" nVehContrib="1" flow="120.00" occupancy="1.02" speed="16.37" length="5.00" nVehEntered="1"/>
   <interval begin="60.00" end="90.00" id="0" nVehContrib="3" flow="360.00" occupancy="3.20" speed="15.69" length="5.00" nVehEntered="3"/>
   <interval begin="90.00" end="120.00" id="0" nVehContrib="3" flow="360.00" occupancy="3.55" speed="14.19" length="5.00" nVehEntered="3"/>
   <interval begin="120.00" end="150.00" id="0" nVehContrib="3" flow="360.00" occupancy="4.34" speed="11.68" length="5.00" nVehEntered="3"/>
   <interval begin="150.00" end="180.00" id="0" nVehContrib="1" flow="120.00" occupancy="1.01" speed="16.48" length="5.00" nVehEntered="1"/>
   <interval begin="180.00" end="210.00" id="0" nVehContrib="2" flow="240.00" occupancy="2.26" speed="14.76" length="5.00" nVehEntered="2"/>
   <interval begin="210.00" end="240.00" id="0" nVehContrib="0" flow="0.00" occupancy="0.00" speed="-1.00" length="-1.00" nVehEntered="0"/>
   <interval begin="240.00" end="270.00" id="0" nVehContrib="3" flow="360.00" occupancy="3.02" speed="16.54" length="5.00" nVehEntered="3"/>
   <interval begin="270.00" end="300.00" id="0" nVehContrib="2" flow="240.00" occupancy="2.05" speed="16.29" length="5.00" nVehEntered="2"/>
   <interval begin="300.00" end="330.00" id="0" nVehContrib="4" flow="480.00" occupancy="4.50" speed="14.87" length="5.00" nVehEntered="4"/>
   <interval begin="330.00" end="360.00" id="0" nVehContrib="3" flow="360.00" occupancy="3.90" speed="13.15" length="5.00" nVehEntered="3"/>
   <interval begin="360.00" end="390.00" id="0" nVehContrib="1" flow="120.00" occupancy="8.28" speed="6.26" length="5.00" nVehEntered="1"/>
   <interval begin="390.00" end="420.00" id="0" nVehContrib="3" flow="360.00" occupancy="12.18" speed="5.88" length="5.00" nVehEntered="3"/>
   <interval begin="420.00" end="450.00" id="0" nVehContrib="2" flow="240.00" occupancy="51.46" speed="2.32" length="5.00" nVehEntered="2"/>
   <interval begin="450.00" end="480.00" id="0" nVehContrib="4" flow="480.00" occupancy="54.50" speed="3.04" length="5.00" nVehEntered="4"/>
   <interval begin="480.00" end="510.00" id="0" nVehContrib="3" flow="360.00" occupancy="17.97" speed="4.69" length="5.00" nVehEntered="3"/>
   <interval begin="510.00" end="540.00" id="0" nVehContrib="4" flow="480.00" occupancy="23.03" speed="3.56" length="5.00" nVehEntered="4"/>
   <interval begin="540.00" end="570.00" id="0" nVehContrib="3" flow="360.00" occupancy="19.75" speed="2.91" length="5.00" nVehEntered="3"/>
   <interval begin="570.00" end="600.00" id="0" nVehContrib="1" flow="120.00" occupancy="9.75" speed="1.71" length="5.00" nVehEntered="1"/>
   <interval begin="600.00" end="630.00" id="0" nVehContrib="2" flow="240.00" occupancy="20.74" speed="1.90" length="5.00" nVehEntered="2"/>
   <interval begin="630.00" end="660.00" id="0" nVehContrib="4" flow="480.00" occupancy="22.03" speed="3.54" length="5.00" nVehEntered="4"/>
   <interval begin="660.00" end="690.00" id="0" nVehContrib="3" flow="360.00" occupancy="19.92" speed="2.88" length="5.00" nVehEntered="3"/>
   <interval begin="690.00" end="720.00" id="0" nVehContrib="1" flow="120.00" occupancy="10.83" speed="1.54" length="5.00" nVehEntered="1"/>
   <interval begin="720.00" end="750.00" id="0" nVehContrib="3" flow="360.00" occupancy="57.77" speed="1.69" length="5.00" nVehEntered="3"/>
   <interval begin="750.00" end="780.00" id="0" nVehContrib="2" flow="240.00" occupancy="15.07" speed="2.45" length="5.00" nVehEntered="2"/>
   <interval begin="780.00" end="810.00" id="0" nVehContrib="2" flow="240.00" occupancy="17.00" speed="2.64" length="5.00" nVehEntered="2"/>
   <interval begin="810.00" end="840.00" id="0" nVehContrib="5" flow="600.00" occupancy="23.63" speed="3.64" length="5.00" nVehEntered="5"/>
   <interval begin="840.00" end="870.00" id="0" nVehContrib="4" flow="480.00" occupancy="25.45" speed="3.54" length="5.00" nVehEntered="4"/>
   <interval begin="870.00" end="900.00" id="0" nVehContrib="2" flow="240.00" occupancy="15.60" speed="2.43" length="5.00" nVehEntered="2"/>
   <interval begin="900.00" end="930.00" id="0" nVehContrib="4" flow="480.00" occupancy="22.34" speed="3.50" length="5.00" nVehEntered="4"/>
   <interval begin="930.00" end="960.00" id="0" nVehContrib="1" flow="120.00" occupancy="10.59" speed="1.57" length="5.00" nVehEntered="1"/>
   <interval begin="960.00" end="990.00" id="0" nVehContrib="1" flow="120.00" occupancy="10.94" speed="1.52" length="5.00" nVehEntered="1"/>
   <interval begin="990.00" end="1020.00" id="0" nVehContrib="4" flow="480.00" occupancy="23.40" speed="3.35" length="5.00" nVehEntered="4"/>
   <interval begin="1020.00" end="1050.00" id="0" nVehContrib="4" flow="480.00" occupancy="24.12" speed="3.22" length="5.00" nVehEntered="4"/>
   <interval begin="1050.00" end="1080.00" id="0" nVehContrib="4" flow="480.00" occupancy="24.58" speed="3.28" length="5.00" nVehEntered="4"/>
   <interval begin="1080.00" end="1110.00" id="0" nVehContrib="3" flow="360.00" occupancy="19.35" speed="2.92" length="5.00" nVehEntered="3"/>
   <interval begin="1110.00" end="1140.00" id="0" nVehContrib="1" flow="120.00" occupancy="43.12" speed="1.59" length="5.00" nVehEntered="1"/>
   <interval begin="1140.00" end="1170.00" id="0" nVehContrib="3" flow="360.00" occupancy="31.67" speed="2.21" length="5.00" nVehEntered="3"/>
   <interval begin="1170.00" end="1200.00" id="0" nVehContrib="0" flow="0.00" occupancy="6.01" speed="-1.00" length="-1.00" nVehEntered="0"/>
   <interval begin="1200.00" end="1230.00" id="0" nVehContrib="5" flow="600.00" occupancy="28.55" speed="3.11" length="5.00" nVehEntered="5"/>
   <interval begin="1230.00" end="1260.00" id="0" nVehContrib="3" flow="360.00" occupancy="18.08" speed="3.75" length="5.00" nVehEntered="3"/>
   <interval begin="1260.00" end="1290.00" id="0" nVehContrib="4" flow="480.00" occupancy="23.57" speed="3.09" length="5.00" nVehEntered="4"/>
   <interval begin="1290.00" end="1320.00" id="0" nVehContrib="2" flow="240.00" occupancy="53.86" speed="1.66" length="5.00" nVehEntered="2"/>
   <interval begin="1320.00" end="1350.00" id="0" nVehContrib="3" flow="360.00" occupancy="18.67" speed="2.98" length="5.00" nVehEntered="3"/>
   <interval begin="1350.00" end="1380.00" id="0" nVehContrib="0" flow="0.00" occupancy="0.00" speed="-1.00" length="-1.00" nVehEntered="0"/>
   <interval begin="1380.00" end="1410.00" id="0" nVehContrib="3" flow="360.00" occupancy="20.45" speed="2.96" length="5.00" nVehEntered="3"/>
   <interval begin="1410.00" end="1440.00" id="0" nVehContrib="4" flow="480.00" occupancy="28.91" speed="2.98" length="5.00" nVehEntered="4"/>
   <interval begin="1440.00" end="1470.00" id="0" nVehContrib="5" flow="600.00" occupancy="20.81" speed="4.77" length="5.00" nVehEntered="5"/>
   <interval begin="1470.00" end="1500.00" id="0" nVehContrib="3" flow="360.00" occupancy="22.90" speed="2.80" length="5.00" nVehEntered="3"/>
   <interval begin="1500.00" end="1530.00" id="0" nVehContrib="5" flow="600.00" occupancy="25.33" speed="4.04" length="5.00" nVehEntered="5"/>
   <interval begin="1530.00" end="1560.00" id="0" nVehContrib="2" flow="240.00" occupancy="14.20" speed="3.34" length="5.00" nVehEntered="2"/>
   <interval begin="1560.00" end="1590.00" id="0" nVehContrib="3" flow="360.00" occupancy="19.08" speed="3.06" length="5.00" nVehEntered="3"/>
   <interval begin="1590.00" end="1620.00" id="0" nVehContrib="7" flow="840.00" occupancy="29.18" speed="5.13" length="5.00" nVehEntered="7"/>
   <interval begin="1620.00" end="1650.00" id="0" nVehContrib="4" flow="480.00" occupancy="24.19" speed="3.45" length="5.00" nVehEntered="4"/>
   <interval begin="1650.00" end="1680.00" id="0" nVehContrib="1" flow="120.00" occupancy="3.03" speed="4.13" length="5.00" nVehEntered="1"/>
   <interval begin="1680.00" end="1710.00" id="0" nVehContrib="4" flow="480.00" occupancy="27.46" speed="3.24" length="5.00" nVehEntered="4"/>
   <interval begin="1710.00" end="1740.00" id="0" nVehContrib="3" flow="360.00" occupancy="21.00" speed="2.79" length="5.00" nVehEntered="3"/>
   <interval begin="1740.00" end="1770.00" id="0" nVehContrib="5" flow="600.00" occupancy="25.93" speed="3.78" length="5.00" nVehEntered="5"/>
   <interval begin="1770.00" end="1800.00" id="0" nVehContrib="1" flow="120.00" occupancy="10.06" speed="1.66" length="5.00" nVehEntered="1"/>
   <interval begin="1800.00" end="1830.00" id="0" nVehContrib="6" flow="720.00" occupancy="21.90" speed="4.81" length="5.00" nVehEntered="6"/>
   <interval begin="1830.00" end="1860.00" id="0" nVehContrib="7" flow="840.00" occupancy="28.56" speed="5.16" length="5.00" nVehEntered="7"/>
   <interval begin="1860.00" end="1890.00" id="0" nVehContrib="3" flow="360.00" occupancy="6.10" speed="9.06" length="5.00" nVehEntered="3"/>
   <interval begin="1890.00" end="1920.00" id="0" nVehContrib="6" flow="720.00" occupancy="28.91" speed="4.52" length="5.00" nVehEntered="6"/>
   <interval begin="1920.00" end="1950.00" id="0" nVehContrib="3" flow="360.00" occupancy="5.98" speed="9.77" length="5.00" nVehEntered="3"/>
   <interval begin="1950.00" end="1980.00" id="0" nVehContrib="3" flow="360.00" occupancy="3.04" speed="16.46" length="5.00" nVehEntered="3"/>
   <interval begin="1980.00" end="2010.00" id="0" nVehContrib="1" flow="120.00" occupancy="1.00" speed="16.67" length="5.00" nVehEntered="1"/>
   <interval begin="2010.00" end="2040.00" id="0" nVehContrib="2" flow="240.00" occupancy="2.02" speed="16.51" length="5.00" nVehEntered="2"/>
   <interval begin="2040.00" end="2070.00" id="0" nVehContrib="3" flow="360.00" occupancy="3.14" speed="15.91" length="5.00" nVehEntered="3"/>
   <interval begin="2070.00" end="2100.00" id="0" nVehContrib="1" flow="120.00" occupancy="1.14" speed="14.58" length="5.00" nVehEntered="1"/>
   <interval begin="2100.00" end="2130.00" id="0" nVehContrib="2" flow="240.00" occupancy="2.03" speed="16.42" length="5.00" nVehEntered="2"/>
   <interval begin="2130.00" end="2160.00" id="0" nVehContrib="4" flow="480.00" occupancy="4.13" speed="16.16" length="5.00" nVehEntered="4"/>
   <interval begin="2160.00" end="2190.00" id="0" nVehContrib="1" flow="120.00" occupancy="1.01" speed="16.43" length="5.00" nVehEntered="1"/>
   <interval begin="2190.00" end="2220.00" id="0" nVehContrib="5" flow="600.00" occupancy="7.01" speed="12.81" length="5.00" nVehEntered="5"/>
   <interval begin="2220.00" end="2250.00" id="0" nVehContrib="2" flow="240.00" occupancy="2.89" speed="13.20" length="5.00" nVehEntered="2"/>
   <interval begin="2250.00" end="2280.00" id="0" nVehContrib="3" flow="360.00" occupancy="2.92" speed="16.13" length="5.00" nVehEntered="3"/>
   <interval begin="2280.00" end="2310.00" id="0" nVehContrib="4" flow="480.00" occupancy="4.16" speed="16.05" length="5.00" nVehEntered="4"/>
   <interval begin="2310.00" end="2340.00" id="0" nVehContrib="4" flow="480.00" occupancy="6.77" speed="10.71" length="5.00" nVehEntered="4"/>
   <interval begin="2340.00" end="2370.00" id="0" nVehContrib="2" flow="240.00" occupancy="3.00" speed="11.14" length="5.00" nVehEntered="2"/>
   <interval begin="2370.00" end="2400.00" id="0" nVehContrib="2" flow="240.00" occupancy="2.92" speed="11.83" length="5.00" nVehEntered="2"/>
   <interval begin="2400.00" end="2430.00" id="0" nVehContrib="2" flow="240.00" occupancy="3.98" speed="8.52" length="5.00" nVehEntered="2"/>
   <interval begin="2430.00" end="2460.00" id="0" nVehContrib="5" flow="600.00" occupancy="6.18" speed="13.78" length="5.00" nVehEntered="5"/>
   <interval begin="2460.00" end="2490.00" id="0" nVehContrib="1" flow="120.00" occupancy="1.01" speed="16.57" length="5.00" nVehEntered="1"/>
   <interval begin="2490.00" end="2520.00" id="0" nVehContrib="5" flow="600.00" occupancy="5.14" speed="16.23" length="5.00" nVehEntered="5"/>
   <interval begin="2520.00" end="2550.00" id="0" nVehContrib="1" flow="120.00" occupancy="1.00" speed="16.64" length="5.00" nVehEntered="1"/>
   <interval begin="2550.00" end="2580.00" id="0" nVehContrib="6" flow="720.00" occupancy="6.27" speed="15.98" length="5.00" nVehEntered="6"/>
   <interval begin="2580.00" end="2610.00" id="0" nVehContrib="4" flow="480.00" occupancy="8.03" speed="10.54" length="5.00" nVehEntered="4"/>
   <interval begin="2610.00" end="2640.00" id="0" nVehContrib="2" flow="240.00" occupancy="12.98" speed="2.59" length="5.00" nVehEntered="2"/>
   <interval begin="2640.00" end="2670.00" id="0" nVehContrib="2" flow="240.00" occupancy="10.75" speed="3.82" length="5.00" nVehEntered="2"/>
   <interval begin="2670.00" end="2700.00" id="0" nVehContrib="3" flow="360.00" occupancy="3.70" speed="13.66" length="5.00" nVehEntered="3"/>
   <interval begin="2700.00" end="2730.00" id="0" nVehContrib="2" flow="240.00" occupancy="2.86" speed="11.65" length="5.00" nVehEntered="2"/>
   <interval begin="2730.00" end="2760.00" id="0" nVehContrib="3" flow="360.00" occupancy="3.19" speed="15.69" length="5.00" nVehEntered="3"/>
   <interval begin="2760.00" end="2790.00" id="0" nVehContrib="4" flow="480.00" occupancy="5.01" speed="13.44" length="5.00" nVehEntered="4"/>
   <interval begin="2790.00" end="2820.00" id="0" nVehContrib="5" flow="600.00" occupancy="11.29" speed="8.16" length="5.00" nVehEntered="5"/>
   <interval begin="2820.00" end="2850.00" id="0" nVehContrib="2" flow="240.00" occupancy="3.34" speed="10.01" length="5.00" nVehEntered="2"/>
   <interval begin="2850.00" end="2880.00" id="0" nVehContrib="3" flow="360.00" occupancy="3.79" speed="13.56" length="5.00" nVehEntered="3"/>
   <interval begin="2880.00" end="2910.00" id="0" nVehContrib="3" flow="360.00" occupancy="3.65" speed="13.96" length="5.00" nVehEntered="3"/>
   <interval begin="2910.00" end="2940.00" id="0" nVehContrib="1" flow="120.00" occupancy="1.00" speed="16.65" length="5.00" nVehEntered="1"/>
   <interval begin="2940.00" end="2970.00" id="0" nVehContrib="4" flow="480.00" occupancy="5.00" speed="13.46" length="5.00" nVehEntered="4"/>
   <interval begin="2970.00" end="3000.00" id="0" nVehContrib="4" flow="480.00" occupancy="7.68" speed="9.92" length="5.00" nVehEntered="4"/>
   <interval begin="3000.00" end="3030.00" id="0" nVehContrib="0" flow="0.00" occupancy="0.00" speed="-1.00" length="-1.00" nVehEntered="0"/>
   <interval begin="3030.00" end="3060.00" id="0" nVehContrib="2" flow="240.00" occupancy="2.03" speed="16.40" length="5.00" nVehEntered="2"/>
   <interval begin="3060.00" end="3090.00" id="0" nVehContrib="1" flow="120.00" occupancy="1.40" speed="11.89" length="5.00" nVehEntered="1"/>
   <interval begin="3090.00" end="3120.00" id="0" nVehContrib="4" flow="480.00" occupancy="4.23" speed="15.78" length="5.00" nVehEntered="4"/>
   <interval begin="3120.00" end="3150.00" id="0" nVehContrib="4" flow="480.00" occupancy="14.94" speed="7.51" length="5.00" nVehEntered="4"/>
   <interval begin="3150.00" end="3180.00" id="0" nVehContrib="1" flow="120.00" occupancy="1.72" speed="9.69" length="5.00" nVehEntered="1"/>
   <interval begin="3180.00" end="3210.00" id="0" nVehContrib="3" flow="360.00" occupancy="3.69" speed="13.94" length="5.00" nVehEntered="3"/>
   <interval begin="3210.00" end="3240.00" id="0" nVehContrib="3" flow="360.00" occupancy="11.70" speed="6.16" length="5.00" nVehEntered="3"/>
   <interval begin="3240.00" end="3270.00" id="0" nVehContrib="1" flow="120.00" occupancy="1.10" speed="15.16" length="5.00" nVehEntered="1"/>
   <interval begin="3270.00" end="3300.00" id="0" nVehContrib="5" flow="600.00" occupancy="7.44" speed="12.03" length="5.00" nVehEntered="5"/>
   <interval begin="3300.00" end="3330.00" id="0" nVehContrib="5" flow="600.00" occupancy="5.52" speed="15.21" length="5.00" nVehEntered="5"/>
   <interval begin="3330.00" end="3360.00" id="0" nVehContrib="4" flow="480.00" occupancy="4.48" speed="15.02" length="5.00" nVehEntered="4"/>
   <interval begin="3360.00" end="3390.00" id="0" nVehContrib="4" flow="480.00" occupancy="4.90" speed="14.01" length="5.00" nVehEntered="4"/>
   <interval begin="3390.00" end="3420.00" id="0" nVehContrib="0" flow="0.00" occupancy="0.00" speed="-1.00" length="-1.00" nVehEntered="0"/>
   <interval begin="3420.00" end="3450.00" id="0" nVehContrib="5" flow="600.00" occupancy="5.92" speed="14.37" length="5.00" nVehEntered="5"/>
   <interval begin="3450.00" end="3480.00" id="0" nVehContrib="6" flow="720.00" occupancy="8.14" speed="13.08" length="5.00" nVehEntered="6"/>
   <interval begin="3480.00" end="3510.00" id="0" nVehContrib="4" flow="480.00" occupancy="17.73" speed="7.24" length="5.00" nVehEntered="4"/>
   <interval begin="3510.00" end="3540.00" id="0" nVehContrib="3" flow="360.00" occupancy="6.33" speed="9.17" length="5.00" nVehEntered="3"/>
   <interval begin="3540.00" end="3570.00" id="0" nVehContrib="2" flow="240.00" occupancy="15.01" speed="3.71" length="5.00" nVehEntered="2"/>
   <interval begin="3570.00" end="3600.00" id="0" nVehContrib="2" flow="240.00" occupancy="23.06" speed="2.24" length="5.00" nVehEntered="2"/>
   <interval begin="3600.00" end="3630.00" id="0" nVehContrib="6" flow="720.00" occupancy="25.05" speed="3.99" length="5.00" nVehEntered="6"/>
   <interval begin="3630.00" end="3660.00" id="0" nVehContrib="2" flow="240.00" occupancy="20.70" speed="1.61" length="5.00" nVehEntered="2"/>
   <interval begin="3660.00" end="3690.00" id="0" nVehContrib="3" flow="360.00" occupancy="18.75" speed="3.09" length="5.00" nVehEntered="3"/>
   <interval begin="3690.00" end="3720.00" id="0" nVehContrib="2" flow="240.00" occupancy="16.88" speed="2.13" length="5.00" nVehEntered="2"/>
   <interval begin="3720.00" end="3750.00" id="0" nVehContrib="6" flow="720.00" occupancy="28.93" speed="4.34" length="5.00" nVehEntered="6"/>
   <interval begin="3750.00" end="3780.00" id="0" nVehContrib="6" flow="720.00" occupancy="27.85" speed="4.34" length="5.00" nVehEntered="6"/>
   <interval begin="3780.00" end="3810.00" id="0" nVehContrib="3" flow="360.00" occupancy="20.66" speed="2.98" length="5.00" nVehEntered="3"/>
   <interval begin="3810.00" end="3840.00" id="0" nVehContrib="4" flow="480.00" occupancy="21.48" speed="3.76" length="5.00" nVehEntered="4"/>
   <interval begin="3840.00" end="3870.00" id="0" nVehContrib="2" flow="240.00" occupancy="15.57" speed="3.07" length="5.00" nVehEntered="2"/>
   <interval begin="3870.00" end="3900.00" id="0" nVehContrib="2" flow="240.00" occupancy="17.97" speed="2.25" length="5.00" nVehEntered="2"/>
   <interval begin="3900.00" end="3930.00" id="0" nVehContrib="5" flow="600.00" occupancy="25.60" speed="3.85" length="5.00" nVehEntered="5"/>
   <interval begin="3930.00" end="3960.00" id="0" nVehContrib="3" flow="360.00" occupancy="18.78" speed="3.11" length="5.00" nVehEntered="3"/>
   <interval begin="3960.00" end="3990.00" id="0" nVehContrib="5" flow="600.00" occupancy="25.88" speed="3.80" length="5.00" nVehEntered="5"/>
   <interval begin="3990.00" end="4020.00" id="0" nVehContrib="4" flow="480.00" occupancy="23.33" speed="3.33" length="5.00" nVehEntered="4"/>
   <interval begin="4020.00" end="4050.00" id="0" nVehContrib="3" flow="360.00" occupancy="20.43" speed="3.05" length="5.00" nVehEntered="3"/>
   <interval begin="4050.00" end="4080.00" id="0" nVehContrib="2" flow="240.00" occupancy="8.69" speed="4.67" length="5.00" nVehEntered="2"/>
   <interval begin="4080.00" end="4110.00" id="0" nVehContrib="5" flow="600.00" occupancy="62.71" speed="4.17" length="5.00" nVehEntered="5"/>
   <interval begin="4110.00" end="4140.00" id="0" nVehContrib="4" flow="480.00" occupancy="22.50" speed="2.16" length="5.00" nVehEntered="4"/>
   <interval begin="4140.00" end="4170.00" id="0" nVehContrib="4" flow="480.00" occupancy="24.95" speed="3.39" length="5.00" nVehEntered="4"/>
   <interval begin="4170.00" end="4200.00" id="0" nVehContrib="4" flow="480.00" occupancy="27.07" speed="3.26" length="5.00" nVehEntered="4"/>
   <interval begin="4200.00" end="4230.00" id="0" nVehContrib="4" flow="480.00" occupancy="11.09" speed="4.57" length="5.00" nVehEntered="4"/>
   <interval begin="4230.00" end="4260.00" id="0" nVehContrib="2" flow="240.00" occupancy="24.40" speed="2.40" length="5.00" nVehEntered="2"/>
   <interval begin="4260.00" end="4290.00" id="0" nVehContrib="5" flow="600.00" occupancy="28.11" speed="3.06" length="5.00" nVehEntered="5"/>
   <interval begin="4290.00" end="4320.00" id="0" nVehContrib="3" flow="360.00" occupancy="16.00" speed="3.76" length="5.00" nVehEntered="3"/>
   <interval begin="4320.00" end="4350.00" id="0" nVehContrib="4" flow="480.00" occupancy="19.78" speed="3.37" length="5.00" nVehEntered="4"/>
   <interval begin="4350.00" end="4380.00" id="0" nVehContrib="4" flow="480.00" occupancy="23.85" speed="3.25" length="5.00" nVehEntered="4"/>
   <interval begin="4380.00" end="4410.00" id="0" nVehContrib="4" flow="480.00" occupancy="22.86" speed="3.53" length="5.00" nVehEntered="4"/>
   <interval begin="4410.00" end="4440.00" id="0" nVehContrib="3" flow="360.00" occupancy="19.85" speed="2.97" length="5.00" nVehEntered="3"/>
   <interval begin="4440.00" end="4470.00" id="0" nVehContrib="3" flow="360.00" occupancy="19.89" speed="3.05" length="5.00" nVehEntered="3"/>
   <interval begin="4470.00" end="4500.00" id="0" nVehContrib="2" flow="240.00" occupancy="15.72" speed="2.28" length="5.00" nVehEntered="2"/>
   <interval begin="4500.00" end="4530.00" id="0" nVehContrib="3" flow="360.00" occupancy="19.37" speed="3.05" length="5.00" nVehEntered="3"/>
   <interval begin="4530.00" end="4560.00" id="0" nVehContrib="5" flow="600.00" occupancy="25.44" speed="3.94" length="5.00" nVehEntered="5"/>
   <interval begin="4560.00" end="4590.00" id="0" nVehContrib="5" flow="600.00" occupancy="25.11" speed="3.96" length="5.00" nVehEntered="5"/>
   <interval begin="4590.00" end="4620.00" id="0" nVehContrib="2" flow="240.00" occupancy="15.23" speed="2.58" length="5.00" nVehEntered="2"/>
   <interval begin="4620.00" end="4650.00" id="0" nVehContrib="3" flow="360.00" occupancy="17.72" speed="4.94" length="5.00" nVehEntered="3"/>
   <interval begin="4650.00" end="4680.00" id="0" nVehContrib="6" flow="720.00" occupancy="29.49" speed="4.38" length="5.00" nVehEntered="6"/>
   <interval begin="4680.00" end="4710.00" id="0" nVehContrib="5" flow="600.00" occupancy="16.99" speed="3.76" length="5.00" nVehEntered="5"/>
   <interval begin="4710.00" end="4740.00" id="0" nVehContrib="3" flow="360.00" occupancy="19.05" speed="3.19" length="5.00" nVehEntered="3"/>
   <interval begin="4740.00" end="4770.00" id="0" nVehContrib="5" flow="600.00" occupancy="24.92" speed="4.15" length="5.00" nVehEntered="5"/>
   <interval begin="4770.00" end="4800.00" id="0" nVehContrib="2" flow="240.00" occupancy="16.02" speed="7.26" length="5.00" nVehEntered="2"/>
   <interval begin="4800.00" end="4830.00" id="0" nVehContrib="1" flow="120.00" occupancy="3.02" speed="1.19" length="5.00" nVehEntered="1"/>
   <interval begin="4830.00" end="4860.00" id="0" nVehContrib="5" flow="600.00" occupancy="25.20" speed="4.00" length="5.00" nVehEntered="5"/>
   <interval begin="4860.00" end="4890.00" id="0" nVehContrib="4" flow="480.00" occupancy="22.49" speed="3.47" length="5.00" nVehEntered="4"/>
   <interval begin="4890.00" end="4920.00" id="0" nVehContrib="0" flow="0.00" occupancy="0.00" speed="-1.00" length="-1.00" nVehEntered="0"/>
   <interval begin="4920.00" end="4950.00" id="0" nVehContrib="6" flow="720.00" occupancy="28.57" speed="4.03" length="5.00" nVehEntered="6"/>
   <interval begin="4950.00" end="4980.00" id="0" nVehContrib="1" flow="120.00" occupancy="10.65" speed="1.56" length="5.00" nVehEntered="1"/>
   <interval begin="4980.00" end="5010.00" id="0" nVehContrib="0" flow="0.00" occupancy="0.00" speed="-1.00" length="-1.00" nVehEntered="0"/>
   <interval begin="5010.00" end="5040.00" id="0" nVehContrib="1" flow="120.00" occupancy="11.35" speed="1.47" length="5.00" nVehEntered="1"/>
   <interval begin="5040.00" end="5070.00" id="0" nVehContrib="0" flow="0.00" occupancy="0.57" speed="-1.00" length="-1.00" nVehEntered="0"/>
   <interval begin="5070.00" end="5100.00" id="0" nVehContrib="4" flow="480.00" occupancy="3.53" speed="16.27" length="5.00" nVehEntered="4"/>
   <interval begin="5100.00" end="5130.00" id="0" nVehContrib="1" flow="120.00" occupancy="1.03" speed="16.20" length="5.00" nVehEntered="1"/>
   <interval begin="5130.00" end="5160.00" id="0" nVehContrib="3" flow="360.00" occupancy="3.03" speed="16.51" length="5.00" nVehEntered="3"/>
   <interval begin="5160.00" end="5190.00" id="0" nVehContrib="0" flow="0.00" occupancy="0.00" speed="-1.00" length="-1.00" nVehEntered="0"/>
   <interval begin="5190.00" end="5220.00" id="0" nVehContrib="3" flow="360.00" occupancy="3.03" speed="16.51" length="5.00" nVehEntered="3"/>
   <interval begin="5220.00" end="5250.00" id="0" nVehContrib="5" flow="600.00" occupancy="5.36" speed="15.63" length="5.00" nVehEntered="5"/>
   <interval begin="5250.00" end="5280.00" id="0" nVehContrib="6" flow="720.00" occupancy="9.19" speed="11.69" length="5.00" nVehEntered="6"/>
   <interval begin="5280.00" end="5310.00" id="0" nVehContrib="1" flow="120.00" occupancy="1.77" speed="9.41" length="5.00" nVehEntered="1"/>
   <interval begin="5310.00" end="5340.00" id="0" nVehContrib="4" flow="480.00" occupancy="28.05" speed="3.04" length="5.00" nVehEntered="4"/>
   <interval begin="5340.00" end="5370.00" id="0" nVehContrib="5" flow="600.00" occupancy="27.09" speed="3.45" length="5.00" nVehEntered="5"/>
   <interval begin="5370.00" end="5400.00" id="0" nVehContrib="2" flow="240.00" occupancy="15.35" speed="2.39" length="5.00" nVehEntered="2"/>
   <interval begin="5400.00" end="5430.00" id="0" nVehContrib="3" flow="360.00" occupancy="20.95" speed="2.75" length="5.00" nVehEntered="3"/>
   <interval begin="5430.00" end="5460.00" id="0" nVehContrib="3" flow="360.00" occupancy="19.87" speed="2.95" length="5.00" nVehEntered="3"/>
   <interval begin="5460.00" end="5490.00" id="0" nVehContrib="2" flow="240.00" occupancy="21.29" speed="1.57" length="5.00" nVehEntered="2"/>
   <interval begin="5490.00" end="5520.00" id="0" nVehContrib="5" flow="600.00" occupancy="28.07" speed="3.77" length="5.00" nVehEntered="5"/>
   <interval begin="5520.00" end="5550.00" id="0" nVehContrib="4" flow="480.00" occupancy="12.95" speed="6.41" length="5.00" nVehEntered="4"/>
   <interval begin="5550.00" end="5580.00" id="0" nVehContrib="4" flow="480.00" occupancy="23.10" speed="3.26" length="5.00" nVehEntered="4"/>
   <interval begin="5580.00" end="5610.00" id="0" nVehContrib="1" flow="120.00" occupancy="10.88" speed="1.53" length="5.00" nVehEntered="1"/>
   <interval begin="5610.00" end="5640.00" id="0" nVehContrib="3" flow="360.00" occupancy="20.83" speed="2.60" length="5.00" nVehEntered="3"/>
   <interval begin="5640.00" end="5670.00" id="0" nVehContrib="5" flow="600.00" occupancy="25.99" speed="3.74" length="5.00" nVehEntered="5"/>
   <interval begin="5670.00" end="5700.00" id="0" nVehContrib="4" flow="480.00" occupancy="21.47" speed="3.77" length="5.00" nVehEntered="4"/>
   <interval begin="5700.00" end="5730.00" id="0" nVehContrib="4" flow="480.00" occupancy="27.78" speed="3.39" length="5.00" nVehEntered="4"/>
   <interval begin="5730.00" end="5760.00" id="0" nVehContrib="1" flow="120.00" occupancy="37.01" speed="1.41" length="5.00" nVehEntered="1"/>
   <interval begin="5760.00" end="5790.00" id="0" nVehContrib="4" flow="480.00" occupancy="32.50" speed="2.86" length="5.00" nVehEntered="4"/>
   <interval begin="5790.00" end="5820.00" id="0" nVehContrib="3" flow="360.00" occupancy="20.11" speed="2.82" length="5.00" nVehEntered="3"/>
   <interval begin="5820.00" end="5850.00" id="0" nVehContrib="5" flow="600.00" occupancy="26.28" speed="3.80" length="5.00" nVehEntered="5"/>
   <interval begin="5850.00" end="5880.00" id="0" nVehContrib="4" flow="480.00" occupancy="52.03" speed="3.44" length="5.00" nVehEntered="4"/>
   <interval begin="5880.00" end="5910.00" id="0" nVehContrib="3" flow="360.00" occupancy="29.74" speed="2.31" length="5.00" nVehEntered="3"/>
   <interval begin="5910.00" end="5940.00" id="0" nVehContrib="1" flow="120.00" occupancy="11.82" speed="1.41" length="5.00" nVehEntered="1"/>
   <interval begin="5940.00" end="5970.00" id="0" nVehContrib="3" flow="360.00" occupancy="26.51" speed="2.01" length="5.00" nVehEntered="3"/>
   <interval begin="5970.00" end="6000.00" id="0" nVehContrib="3" flow="360.00" occupancy="67.63" speed="2.34" length="5.00" nVehEntered="3"/>
   <interval begin="6000.00" end="6030.00" id="0" nVehContrib="3" flow="360.00" occupancy="19.47" speed="3.32" length="5.00" nVehEntered="3"/>
   <interval begin="6030.00" end="6060.00" id="0" nVehContrib="3" flow="360.00" occupancy="20.41" speed="2.81" length="5.00" nVehEntered="3"/>