<?xml version="1.0" encoding="UTF-8"?>

<!-- generated on Mon 28 Nov 2016 01:42:52 PM EST by SUMO gui Version 0.25.0
<?xml version="1.0" encoding="UTF-8"?>

<configuration xmlns:xsi="http://www.w3.org/2001/XMLSchema-instance" xsi:noNamespaceSchemaLocation="http://sumo.dlr.de/xsd/sumo-gui.exeConfiguration.xsd">

    <input>
        <net-file value="data/cross.net.xml"/>
        <route-files value="data/cross.rou.xml"/>
        <additional-files value="data/cross.det.xml"/>
    </input>

    <output>
        <tripinfo-output value="tripinfo.xml"/>
        <save-state.prefix value="data/state"/>
    </output>

    <time>
        <begin value="0"/>
    </time>

    <report>
        <verbose value="true"/>
        <no-step-log value="true"/>
    </report>

    <emissions>
        <phemlight-path value="data/./PHEMlight/"/>
    </emissions>

    <traci_server>
        <remote-port value="8873"/>
    </traci_server>

</configuration>
-->

<detector xmlns:xsi="http://www.w3.org/2001/XMLSchema-instance" xsi:noNamespaceSchemaLocation="http://sumo.dlr.de/xsd/det_e1_file.xsd">
   <interval begin="0.00" end="30.00" id="0" nVehContrib="0" flow="0.00" occupancy="0.00" speed="-1.00" length="-1.00" nVehEntered="0"/>
   <interval begin="30.00" end="60.00" id="0" nVehContrib="1" flow="120.00" occupancy="1.02" speed="16.37" length="5.00" nVehEntered="1"/>
   <interval begin="60.00" end="90.00" id="0" nVehContrib="3" flow="360.00" occupancy="3.04" speed="16.47" length="5.00" nVehEntered="3"/>
   <interval begin="90.00" end="120.00" id="0" nVehContrib="3" flow="360.00" occupancy="3.04" speed="16.43" length="5.00" nVehEntered="3"/>
   <interval begin="120.00" end="150.00" id="0" nVehContrib="3" flow="360.00" occupancy="3.06" speed="16.32" length="5.00" nVehEntered="3"/>
   <interval begin="150.00" end="180.00" id="0" nVehContrib="1" flow="120.00" occupancy="1.01" speed="16.50" length="5.00" nVehEntered="1"/>
   <interval begin="180.00" end="210.00" id="0" nVehContrib="2" flow="240.00" occupancy="2.03" speed="16.45" length="5.00" nVehEntered="2"/>
   <interval begin="210.00" end="240.00" id="0" nVehContrib="0" flow="0.00" occupancy="0.00" speed="-1.00" length="-1.00" nVehEntered="0"/>
   <interval begin="240.00" end="270.00" id="0" nVehContrib="3" flow="360.00" occupancy="3.08" speed="16.23" length="5.00" nVehEntered="3"/>
   <interval begin="270.00" end="300.00" id="0" nVehContrib="2" flow="240.00" occupancy="2.01" speed="16.55" length="5.00" nVehEntered="2"/>
   <interval begin="300.00" end="330.00" id="0" nVehContrib="4" flow="480.00" occupancy="4.04" speed="16.51" length="5.00" nVehEntered="4"/>
   <interval begin="330.00" end="360.00" id="0" nVehContrib="3" flow="360.00" occupancy="3.19" speed="15.70" length="5.00" nVehEntered="3"/>
   <interval begin="360.00" end="390.00" id="0" nVehContrib="2" flow="240.00" occupancy="2.02" speed="16.47" length="5.00" nVehEntered="2"/>
   <interval begin="390.00" end="420.00" id="0" nVehContrib="4" flow="480.00" occupancy="4.07" speed="16.39" length="5.00" nVehEntered="4"/>
   <interval begin="420.00" end="450.00" id="0" nVehContrib="3" flow="360.00" occupancy="3.03" speed="16.49" length="5.00" nVehEntered="3"/>
   <interval begin="450.00" end="480.00" id="0" nVehContrib="2" flow="240.00" occupancy="2.04" speed="16.37" length="5.00" nVehEntered="2"/>
   <interval begin="480.00" end="510.00" id="0" nVehContrib="2" flow="240.00" occupancy="2.02" speed="16.51" length="5.00" nVehEntered="2"/>
   <interval begin="510.00" end="540.00" id="0" nVehContrib="5" flow="600.00" occupancy="5.35" speed="15.63" length="5.00" nVehEntered="5"/>
   <interval begin="540.00" end="570.00" id="0" nVehContrib="4" flow="480.00" occupancy="4.09" speed="16.33" length="5.00" nVehEntered="4"/>
   <interval begin="570.00" end="600.00" id="0" nVehContrib="5" flow="600.00" occupancy="5.04" speed="16.55" length="5.00" nVehEntered="5"/>
   <interval begin="600.00" end="630.00" id="0" nVehContrib="4" flow="480.00" occupancy="4.32" speed="15.55" length="5.00" nVehEntered="4"/>
   <interval begin="630.00" end="660.00" id="0" nVehContrib="2" flow="240.00" occupancy="2.02" speed="16.50" length="5.00" nVehEntered="2"/>
   <interval begin="660.00" end="690.00" id="0" nVehContrib="2" flow="240.00" occupancy="2.04" speed="16.34" length="5.00" nVehEntered="2"/>
   <interval begin="690.00" end="720.00" id="0" nVehContrib="4" flow="480.00" occupancy="4.31" speed="15.52" length="5.00" nVehEntered="4"/>
   <interval begin="720.00" end="750.00" id="0" nVehContrib="3" flow="360.00" occupancy="3.22" speed="15.57" length="5.00" nVehEntered="3"/>
   <interval begin="750.00" end="780.00" id="0" nVehContrib="1" flow="120.00" occupancy="1.04" speed="16.07" length="5.00" nVehEntered="1"/>
   <interval begin="780.00" end="810.00" id="0" nVehContrib="3" flow="360.00" occupancy="3.02" speed="16.57" length="5.00" nVehEntered="3"/>
   <interval begin="810.00" end="840.00" id="0" nVehContrib="2" flow="240.00" occupancy="2.07" speed="16.14" length="5.00" nVehEntered="2"/>
   <interval begin="840.00" end="870.00" id="0" nVehContrib="2" flow="240.00" occupancy="2.02" speed="16.54" length="5.00" nVehEntered="2"/>
   <interval begin="870.00" end="900.00" id="0" nVehContrib="3" flow="360.00" occupancy="3.14" speed="15.91" length="5.00" nVehEntered="3"/>
   <interval begin="900.00" end="930.00" id="0" nVehContrib="3" flow="360.00" occupancy="3.33" speed="15.17" length="5.00" nVehEntered="3"/>
   <interval begin="930.00" end="960.00" id="0" nVehContrib="0" flow="0.00" occupancy="0.00" speed="-1.00" length="-1.00" nVehEntered="0"/>
   <interval begin="960.00" end="990.00" id="0" nVehContrib="3" flow="360.00" occupancy="3.04" speed="16.42" length="5.00" nVehEntered="3"/>
   <interval begin="990.00" end="1020.00" id="0" nVehContrib="3" flow="360.00" occupancy="3.04" speed="16.45" length="5.00" nVehEntered="3"/>
   <interval begin="1020.00" end="1050.00" id="0" nVehContrib="5" flow="600.00" occupancy="5.07" speed="16.44" length="5.00" nVehEntered="5"/>
   <interval begin="1050.00" end="1080.00" id="0" nVehContrib="6" flow="720.00" occupancy="6.77" speed="14.90" length="5.00" nVehEntered="6"/>
   <interval begin="1080.00" end="1110.00" id="0" nVehContrib="2" flow="240.00" occupancy="2.02" speed="16.48" length="5.00" nVehEntered="2"/>
   <interval begin="1110.00" end="1140.00" id="0" nVehContrib="2" flow="240.00" occupancy="2.01" speed="16.55" length="5.00" nVehEntered="2"/>
   <interval begin="1140.00" end="1170.00" id="0" nVehContrib="0" flow="0.00" occupancy="0.00" speed="-1.00" length="-1.00" nVehEntered="0"/>
   <interval begin="1170.00" end="1200.00" id="0" nVehContrib="0" flow="0.00" occupancy="0.00" speed="-1.00" length="-1.00" nVehEntered="0"/>
   <interval begin="1200.00" end="1230.00" id="0" nVehContrib="5" flow="600.00" occupancy="5.05" speed="16.51" length="5.00" nVehEntered="5"/>
   <interval begin="1230.00" end="1260.00" id="0" nVehContrib="5" flow="600.00" occupancy="5.25" speed="15.94" length="5.00" nVehEntered="5"/>
   <interval begin="1260.00" end="1290.00" id="0" nVehContrib="3" flow="360.00" occupancy="3.24" speed="15.47" length="5.00" nVehEntered="3"/>
   <interval begin="1290.00" end="1320.00" id="0" nVehContrib="2" flow="240.00" occupancy="2.02" speed="16.51" length="5.00" nVehEntered="2"/>
   <interval begin="1320.00" end="1350.00" id="0" nVehContrib="2" flow="240.00" occupancy="2.03" speed="16.40" length="5.00" nVehEntered="2"/>
   <interval begin="1350.00" end="1380.00" id="0" nVehContrib="1" flow="120.00" occupancy="1.01" speed="16.53" length="5.00" nVehEntered="1"/>
   <interval begin="1380.00" end="1410.00" id="0" nVehContrib="1" flow="120.00" occupancy="1.01" speed="16.47" length="5.00" nVehEntered="1"/>
   <interval begin="1410.00" end="1440.00" id="0" nVehContrib="5" flow="600.00" occupancy="5.20" speed="16.07" length="5.00" nVehEntered="5"/>
   <interval begin="1440.00" end="1470.00" id="0" nVehContrib="3" flow="360.00" occupancy="3.53" speed="14.26" length="5.00" nVehEntered="3"/>
   <interval begin="1470.00" end="1500.00" id="0" nVehContrib="3" flow="360.00" occupancy="3.70" speed="16.47" length="5.00" nVehEntered="3"/>
   <interval begin="1500.00" end="1530.00" id="0" nVehContrib="4" flow="480.00" occupancy="3.43" speed="16.31" length="5.00" nVehEntered="4"/>
   <interval begin="1530.00" end="1560.00" id="0" nVehContrib="4" flow="480.00" occupancy="4.12" speed="16.21" length="5.00" nVehEntered="4"/>
   <interval begin="1560.00" end="1590.00" id="0" nVehContrib="6" flow="720.00" occupancy="6.56" speed="15.45" length="5.00" nVehEntered="6"/>
   <interval begin="1590.00" end="1620.00" id="0" nVehContrib="6" flow="720.00" occupancy="6.47" speed="15.71" length="5.00" nVehEntered="6"/>
   <interval begin="1620.00" end="1650.00" id="0" nVehContrib="1" flow="120.00" occupancy="1.08" speed="15.47" length="5.00" nVehEntered="1"/>
   <interval begin="1650.00" end="1680.00" id="0" nVehContrib="3" flow="360.00" occupancy="3.06" speed="16.32" length="5.00" nVehEntered="3"/>
   <interval begin="1680.00" end="1710.00" id="0" nVehContrib="3" flow="360.00" occupancy="3.03" speed="16.51" length="5.00" nVehEntered="3"/>
   <interval begin="1710.00" end="1740.00" id="0" nVehContrib="5" flow="600.00" occupancy="6.09" speed="14.53" length="5.00" nVehEntered="5"/>
   <interval begin="1740.00" end="1770.00" id="0" nVehContrib="3" flow="360.00" occupancy="3.24" speed="14.82" length="5.00" nVehEntered="3"/>
   <interval begin="1770.00" end="1800.00" id="0" nVehContrib="5" flow="600.00" occupancy="5.24" speed="15.94" length="5.00" nVehEntered="5"/>
   <interval begin="1800.00" end="1830.00" id="0" nVehContrib="4" flow="480.00" occupancy="4.14" speed="16.13" length="5.00" nVehEntered="4"/>
   <interval begin="1830.00" end="1860.00" id="0" nVehContrib="3" flow="360.00" occupancy="3.06" speed="16.34" length="5.00" nVehEntered="3"/>
   <interval begin="1860.00" end="1890.00" id="0" nVehContrib="5" flow="600.00" occupancy="5.15" speed="16.19" length="5.00" nVehEntered="5"/>
   <interval begin="1890.00" end="1920.00" id="0" nVehContrib="4" flow="480.00" occupancy="4.04" speed="16.51" length="5.00" nVehEntered="4"/>
   <interval begin="1920.00" end="1950.00" id="0" nVehContrib="3" flow="360.00" occupancy="3.03" speed="16.49" length="5.00" nVehEntered="3"/>
   <interval begin="1950.00" end="1980.00" id="0" nVehContrib="3" flow="360.00" occupancy="3.52" speed="14.38" length="5.00" nVehEntered="3"/>
   <interval begin="1980.00" end="2010.00" id="0" nVehContrib="1" flow="120.00" occupancy="1.00" speed="16.61" length="5.00" nVehEntered="1"/>
   <interval begin="2010.00" end="2040.00" id="0" nVehContrib="2" flow="240.00" occupancy="2.02" speed="16.51" length="5.00" nVehEntered="2"/>
   <interval begin="2040.00" end="2070.00" id="0" nVehContrib="3" flow="360.00" occupancy="3.03" speed="16.51" length="5.00" nVehEntered="3"/>
   <interval begin="2070.00" end="2100.00" id="0" nVehContrib="1" flow="120.00" occupancy="1.02" speed="16.32" length="5.00" nVehEntered="1"/>
   <interval begin="2100.00" end="2130.00" id="0" nVehContrib="2" flow="240.00" occupancy="2.02" speed="16.52" length="5.00" nVehEntered="2"/>
   <interval begin="2130.00" end="2160.00" id="0" nVehContrib="4" flow="480.00" occupancy="4.05" speed="16.45" length="5.00" nVehEntered="4"/>
   <interval begin="2160.00" end="2190.00" id="0" nVehContrib="1" flow="120.00" occupancy="1.01" speed="16.46" length="5.00" nVehEntered="1"/>
   <interval begin="2190.00" end="2220.00" id="0" nVehContrib="5" flow="600.00" occupancy="5.06" speed="16.47" length="5.00" nVehEntered="5"/>
   <interval begin="2220.00" end="2250.00" id="0" nVehContrib="2" flow="240.00" occupancy="2.03" speed="16.38" length="5.00" nVehEntered="2"/>
   <interval begin="2250.00" end="2280.00" id="0" nVehContrib="3" flow="360.00" occupancy="3.10" speed="16.13" length="5.00" nVehEntered="3"/>
   <interval begin="2280.00" end="2310.00" id="0" nVehContrib="4" flow="480.00" occupancy="4.06" speed="16.44" length="5.00" nVehEntered="4"/>
   <interval begin="2310.00" end="2340.00" id="0" nVehContrib="4" flow="480.00" occupancy="4.12" speed="16.19" length="5.00" nVehEntered="4"/>
   <interval begin="2340.00" end="2370.00" id="0" nVehContrib="2" flow="240.00" occupancy="2.04" speed="16.37" length="5.00" nVehEntered="2"/>
   <interval begin="2370.00" end="2400.00" id="0" nVehContrib="2" flow="240.00" occupancy="2.02" speed="16.50" length="5.00" nVehEntered="2"/>
   <interval begin="2400.00" end="2430.00" id="0" nVehContrib="2" flow="240.00" occupancy="2.01" speed="16.60" length="5.00" nVehEntered="2"/>
   <interval begin="2430.00" end="2460.00" id="0" nVehContrib="5" flow="600.00" occupancy="5.05" speed="16.52" length="5.00" nVehEntered="5"/>
   <interval begin="2460.00" end="2490.00" id="0" nVehContrib="1" flow="120.00" occupancy="1.07" speed="15.54" length="5.00" nVehEntered="1"/>
   <interval begin="2490.00" end="2520.00" id="0" nVehContrib="5" flow="600.00" occupancy="5.68" speed="14.85" length="5.00" nVehEntered="5"/>
   <interval begin="2520.00" end="2550.00" id="0" nVehContrib="1" flow="120.00" occupancy="1.02" speed="16.35" length="5.00" nVehEntered="1"/>
   <interval begin="2550.00" end="2580.00" id="0" nVehContrib="6" flow="720.00" occupancy="6.18" speed="16.18" length="5.00" nVehEntered="6"/>
   <interval begin="2580.00" end="2610.00" id="0" nVehContrib="6" flow="720.00" occupancy="7.83" speed="13.43" length="5.00" nVehEntered="6"/>
   <interval begin="2610.00" end="2640.00" id="0" nVehContrib="0" flow="0.00" occupancy="0.00" speed="-1.00" length="-1.00" nVehEntered="0"/>
   <interval begin="2640.00" end="2670.00" id="0" nVehContrib="2" flow="240.00" occupancy="2.03" speed="16.44" length="5.00" nVehEntered="2"/>
   <interval begin="2670.00" end="2700.00" id="0" nVehContrib="3" flow="360.00" occupancy="3.06" speed="16.32" length="5.00" nVehEntered="3"/>
   <interval begin="2700.00" end="2730.00" id="0" nVehContrib="2" flow="240.00" occupancy="2.29" speed="14.74" length="5.00" nVehEntered="2"/>
   <interval begin="2730.00" end="2760.00" id="0" nVehContrib="3" flow="360.00" occupancy="3.03" speed="16.51" length="5.00" nVehEntered="3"/>
   <interval begin="2760.00" end="2790.00" id="0" nVehContrib="4" flow="480.00" occupancy="4.04" speed="16.50" length="5.00" nVehEntered="4"/>
   <interval begin="2790.00" end="2820.00" id="0" nVehContrib="5" flow="600.00" occupancy="5.49" speed="15.30" length="5.00" nVehEntered="5"/>
   <interval begin="2820.00" end="2850.00" id="0" nVehContrib="2" flow="240.00" occupancy="2.03" speed="16.42" length="5.00" nVehEntered="2"/>
   <interval begin="2850.00" end="2880.00" id="0" nVehContrib="3" flow="360.00" occupancy="3.06" speed="16.34" length="5.00" nVehEntered="3"/>
   <interval begin="2880.00" end="2910.00" id="0" nVehContrib="3" flow="360.00" occupancy="3.07" speed="16.31" length="5.00" nVehEntered="3"/>
   <interval begin="2910.00" end="2940.00" id="0" nVehContrib="0" flow="0.00" occupancy="0.00" speed="-1.00" length="-1.00" nVehEntered="0"/>
   <interval begin="2940.00" end="2970.00" id="0" nVehContrib="5" flow="600.00" occupancy="5.20" speed="16.06" length="5.00" nVehEntered="5"/>
   <interval begin="2970.00" end="3000.00" id="0" nVehContrib="4" flow="480.00" occupancy="4.41" speed="15.24" length="5.00" nVehEntered="4"/>
   <interval begin="3000.00" end="3030.00" id="0" nVehContrib="0" flow="0.00" occupancy="0.00" speed="-1.00" length="-1.00" nVehEntered="0"/>
   <interval begin="3030.00" end="3060.00" id="0" nVehContrib="2" flow="240.00" occupancy="2.02" speed="16.49" length="5.00" nVehEntered="2"/>
   <interval begin="3060.00" end="3090.00" id="0" nVehContrib="1" flow="120.00" occupancy="1.01" speed="16.44" length="5.00" nVehEntered="1"/>
   <interval begin="3090.00" end="3120.00" id="0" nVehContrib="4" flow="480.00" occupancy="4.10" speed="16.28" length="5.00" nVehEntered="4"/>
   <interval begin="3120.00" end="3150.00" id="0" nVehContrib="4" flow="480.00" occupancy="4.22" speed="15.86" length="5.00" nVehEntered="4"/>
   <interval begin="3150.00" end="3180.00" id="0" nVehContrib="1" flow="120.00" occupancy="1.28" speed="13.02" length="5.00" nVehEntered="1"/>
   <interval begin="3180.00" end="3210.00" id="0" nVehContrib="3" flow="360.00" occupancy="3.07" speed="16.28" length="5.00" nVehEntered="3"/>
   <interval begin="3210.00" end="3240.00" id="0" nVehContrib="3" flow="360.00" occupancy="3.03" speed="16.49" length="5.00" nVehEntered="3"/>
   <interval begin="3240.00" end="3270.00" id="0" nVehContrib="1" flow="120.00" occupancy="1.05" speed="15.84" length="5.00" nVehEntered="1"/>
   <interval begin="3270.00" end="3300.00" id="0" nVehContrib="5" flow="600.00" occupancy="5.05" speed="16.49" length="5.00" nVehEntered="5"/>
   <interval begin="3300.00" end="3330.00" id="0" nVehContrib="5" flow="600.00" occupancy="5.43" speed="15.45" length="5.00" nVehEntered="5"/>
   <interval begin="3330.00" end="3360.00" id="0" nVehContrib="4" flow="480.00" occupancy="4.16" speed="16.05" length="5.00" nVehEntered="4"/>
   <interval begin="3360.00" end="3390.00" id="0" nVehContrib="4" flow="480.00" occupancy="4.37" speed="15.48" length="5.00" nVehEntered="4"/>
   <interval begin="3390.00" end="3420.00" id="0" nVehContrib="0" flow="0.00" occupancy="0.00" speed="-1.00" length="-1.00" nVehEntered="0"/>
   <interval begin="3420.00" end="3450.00" id="0" nVehContrib="5" flow="600.00" occupancy="5.16" speed="16.17" length="5.00" nVehEntered="5"/>
   <interval begin="3450.00" end="3480.00" id="0" nVehContrib="5" flow="600.00" occupancy="5.70" speed="16.04" length="5.00" nVehEntered="5"/>
   <interval begin="3480.00" end="3510.00" id="0" nVehContrib="5" flow="600.00" occupancy="4.98" speed="15.39" length="5.00" nVehEntered="5"/>
   <interval begin="3510.00" end="3540.00" id="0" nVehContrib="4" flow="480.00" occupancy="4.06" speed="16.41" length="5.00" nVehEntered="4"/>
   <interval begin="3540.00" end="3570.00" id="0" nVehContrib="3" flow="360.00" occupancy="3.04" speed="16.44" length="5.00" nVehEntered="3"/>
   <interval begin="3570.00" end="3600.00" id="0" nVehContrib="4" flow="480.00" occupancy="4.04" speed="16.52" length="5.00" nVehEntered="4"/>
   <interval begin="3600.00" end="3630.00" id="0" nVehContrib="3" flow="360.00" occupancy="3.22" speed="15.65" length="5.00" nVehEntered="3"/>
   <interval begin="3630.00" end="3660.00" id="0" nVehContrib="1" flow="120.00" occupancy="1.01" speed="16.58" length="5.00" nVehEntered="1"/>
   <interval begin="3660.00" end="3690.00" id="0" nVehContrib="0" flow="0.00" occupancy="0.00" speed="-1.00" length="-1.00" nVehEntered="0"/>
   <interval begin="3690.00" end="3720.00" id="0" nVehContrib="0" flow="0.00" occupancy="0.00" speed="-1.00" length="-1.00" nVehEntered="0"/>
   <interval begin="3720.00" end="3750.00" id="0" nVehContrib="0" flow="0.00" occupancy="0.00" speed="-1.00" length="-1.00" nVehEntered="0"/>
   <interval begin="3750.00" end="3780.00" id="0" nVehContrib="0" flow="0.00" occupancy="0.00" speed="-1.00" length="-1.00" nVehEntered="0"/>
   <interval begin="3780.00" end="3810.00" id="0" nVehContrib="0" flow="0.00" occupancy="0.00" speed="-1.00" length="-1.00" nVehEntered="0"/>
   <interval begin="3810.00" end="3840.00" id="0" nVehContrib="0" flow="0.00" occupancy="0.00" speed="-1.00" length="-1.00" nVehEntered="0"/>
   <interval begin="3840.00" end="3870.00" id="0" nVehContrib="0" flow="0.00" occupancy="0.00" speed="-1.00" length="-1.00" nVehEntered="0"/>
   <interval begin="3870.00" end="3900.00" id="0" nVehContrib="0" flow="0.00" occupancy="0.00" speed="-1.00" length="-1.00" nVehEntered="0"/>
   <interval begin="3900.00" end="3930.00" id="0" nVehContrib="0" flow="0.00" occupancy="0.00" speed="-1.00" length="-1.00" nVehEntered="0"/>
   <interval begin="3930.00" end="3960.00" id="0" nVehContrib="0" flow="0.00" occupancy="0.00" speed="-1.00" length="-1.00" nVehEntered="0"/>
   <interval begin="3960.00" end="3990.00" id="0" nVehContrib="0" flow="0.00" occupancy="0.00" speed="-1.00" length="-1.00" nVehEntered="0"/>
   <interval begin="3990.00" end="4020.00" id="0" nVehContrib="0" flow="0.00" occupancy="0.00" speed="-1.00" length="-1.00" nVehEntered="0"/>
   <interval begin="4020.00" end="4050.00" id="0" nVehContrib="0" flow="0.00" occupancy="0.00" speed="-1.00" length="-1.00" nVehEntered="0"/>
   <interval begin="4050.00" end="4080.00" id="0" nVehContrib="0" flow="0.00" occupancy="0.00" speed="-1.00" length="-1.00" nVehEntered="0"/>
   <interval begin="4080.00" end="4110.00" id="0" nVehContrib="0" flow="0.00" occupancy="0.00" speed="-1.00" length="-1.00" nVehEntered="0"/>
   <interval begin="4110.00" end="4140.00" id="0" nVehContrib="0" flow="0.00" occupancy="0.00" speed="-1.00" length="-1.00" nVehEntered="0"/>
   <interval begin="4140.00" end="4170.00" id="0" nVehContrib="0" flow="0.00" occupancy="0.00" speed="-1.00" length="-1.00" nVehEntered="0"/>
   <interval begin="4170.00" end="4200.00" id="0" nVehContrib="0" flow="0.00" occupancy="0.00" speed="-1.00" length="-1.00" nVehEntered="0"/>
   <interval begin="4200.00" end="4230.00" id="0" nVehContrib="0" flow="0.00" occupancy="0.00" speed="-1.00" length="-1.00" nVehEntered="0"/>
   <interval begin="4230.00" end="4260.00" id="0" nVehContrib="0" flow="0.00" occupancy="0.00" speed="-1.00" length="-1.00" nVehEntered="0"/>
   <interval begin="4260.00" end="4290.00" id="0" nVehContrib="0" flow="0.00" occupancy="0.00" speed="-1.00" length="-1.00" nVehEntered="0"/>
   <interval begin="4290.00" end="4320.00" id="0" nVehContrib="0" flow="0.00" occupancy="0.00" speed="-1.00" length="-1.00" nVehEntered="0"/>
   <interval begin="4320.00" end="4323.00" id="0" nVehContrib="0" flow="0.00" occupancy="0.00" speed="-1.00" length="-1.00" nVehEntered="0"/>
</detector>
